
     Program PWSCF v.7.2 starts on  6Apr2025 at 21:28:38 

     This program is part of the open-source Quantum ESPRESSO suite
     for quantum simulation of materials; please cite
         "P. Giannozzi et al., J. Phys.:Condens. Matter 21 395502 (2009);
         "P. Giannozzi et al., J. Phys.:Condens. Matter 29 465901 (2017);
         "P. Giannozzi et al., J. Chem. Phys. 152 154105 (2020);
          URL http://www.quantum-espresso.org", 
     in publications or presentations arising from this work. More details at
     http://www.quantum-espresso.org/quote

     Parallel version (MPI), running on     8 processors

     MPI processes distributed on     1 nodes
     19537 MiB available memory on the printing compute node when the environment starts

     Reading input from ./si.scf.in

     Current dimensions of program PWSCF are:
     Max number of different atomic species (ntypx) = 10
     Max number of k-points (npk) =  40000
     Max angular momentum in pseudopotentials (lmaxx) =  4

     R & G space division:  proc/nbgrp/npool/nimage =       8
     Subspace diagonalization in iterative solution of the eigenvalue problem:
     a serial algorithm will be used


     Parallelization info
     --------------------
     sticks:   dense  smooth     PW     G-vecs:    dense   smooth      PW
     Min          45      45     15                  558      558     117
     Max          46      46     16                  560      560     121
     Sum         361     361    121                 4477     4477     941

     Using Slab Decomposition



     bravais-lattice index     =            2
     lattice parameter (alat)  =      10.2000  a.u.
     unit-cell volume          =     265.3020 (a.u.)^3
     number of atoms/cell      =            2
     number of atomic types    =            1
     number of electrons       =         8.00
     number of Kohn-Sham states=           30
     kinetic-energy cutoff     =      25.0000  Ry
     charge density cutoff     =     100.0000  Ry
     scf convergence threshold =      1.0E-08
     mixing beta               =       0.7000
     number of iterations used =            8  plain     mixing
     Exchange-correlation= PBE
                           (   1   4   3   4   0   0   0)

     celldm(1)=  10.200000  celldm(2)=   0.000000  celldm(3)=   0.000000
     celldm(4)=   0.000000  celldm(5)=   0.000000  celldm(6)=   0.000000

     crystal axes: (cart. coord. in units of alat)
               a(1) = (  -0.500000   0.000000   0.500000 )  
               a(2) = (   0.000000   0.500000   0.500000 )  
               a(3) = (  -0.500000   0.500000   0.000000 )  

     reciprocal axes: (cart. coord. in units 2 pi/alat)
               b(1) = ( -1.000000 -1.000000  1.000000 )  
               b(2) = (  1.000000  1.000000  1.000000 )  
               b(3) = ( -1.000000  1.000000 -1.000000 )  


     PseudoPot. # 1 for Si read from file:
     ../pseudo/Si_ONCV_PBE-1.2.upf
     MD5 check sum: 7f029a58b69e3aa87b46a36c608bf45e
     Pseudo is Norm-conserving, Zval =  4.0
     Generated using ONCVPSP code by D. R. Hamann
     Using radial grid of  602 points,  4 beta functions with: 
                l(1) =   0
                l(2) =   0
                l(3) =   1
                l(4) =   1

     atomic species   valence    mass     pseudopotential
     Si                4.00    28.08600     Si( 1.00)

     No symmetry found


                                    s                        frac. trans.

      isym =  1     identity                                     

 cryst.   s( 1) = (     1          0          0      )
                  (     0          1          0      )
                  (     0          0          1      )

 cart.    s( 1) = (  1.0000000  0.0000000  0.0000000 )
                  (  0.0000000  1.0000000  0.0000000 )
                  (  0.0000000  0.0000000  1.0000000 )


     point group C_1 (1)    
     there are  1 classes
     the character table:

       E    
A      1.00

     the symmetry operations in each class and the name of the first element:

     E        1
          identity                                               

   Cartesian axes

     site n.     atom                  positions (alat units)
         1        Si     tau(   1) = (  -0.8750000   0.8750000   0.8750000  )
         2        Si     tau(   2) = (  -0.1250000   0.1250000   0.1250000  )

   Crystallographic axes

     site n.     atom                  positions (cryst. coord.)
         1        Si     tau(   1) = (  0.8750000  0.8750000  0.8750000  )
         2        Si     tau(   2) = (  0.1250000  0.1250000  0.1250000  )

     number of k points=    64
                       cart. coord. in units 2pi/alat
        k(    1) = (   0.0000000   0.0000000   0.0000000), wk =   0.0312500
        k(    2) = (  -0.2500000   0.2500000  -0.2500000), wk =   0.0312500
        k(    3) = (  -0.5000000   0.5000000  -0.5000000), wk =   0.0312500
        k(    4) = (  -0.7500000   0.7500000  -0.7500000), wk =   0.0312500
        k(    5) = (   0.2500000   0.2500000   0.2500000), wk =   0.0312500
        k(    6) = (   0.0000000   0.5000000   0.0000000), wk =   0.0312500
        k(    7) = (  -0.2500000   0.7500000  -0.2500000), wk =   0.0312500
        k(    8) = (  -0.5000000   1.0000000  -0.5000000), wk =   0.0312500
        k(    9) = (   0.5000000   0.5000000   0.5000000), wk =   0.0312500
        k(   10) = (   0.2500000   0.7500000   0.2500000), wk =   0.0312500
        k(   11) = (   0.0000000   1.0000000   0.0000000), wk =   0.0312500
        k(   12) = (  -0.2500000   1.2500000  -0.2500000), wk =   0.0312500
        k(   13) = (   0.7500000   0.7500000   0.7500000), wk =   0.0312500
        k(   14) = (   0.5000000   1.0000000   0.5000000), wk =   0.0312500
        k(   15) = (   0.2500000   1.2500000   0.2500000), wk =   0.0312500
        k(   16) = (   0.0000000   1.5000000   0.0000000), wk =   0.0312500
        k(   17) = (  -0.2500000  -0.2500000   0.2500000), wk =   0.0312500
        k(   18) = (  -0.5000000   0.0000000   0.0000000), wk =   0.0312500
        k(   19) = (  -0.7500000   0.2500000  -0.2500000), wk =   0.0312500
        k(   20) = (  -1.0000000   0.5000000  -0.5000000), wk =   0.0312500
        k(   21) = (   0.0000000   0.0000000   0.5000000), wk =   0.0312500
        k(   22) = (  -0.2500000   0.2500000   0.2500000), wk =   0.0312500
        k(   23) = (  -0.5000000   0.5000000   0.0000000), wk =   0.0312500
        k(   24) = (  -0.7500000   0.7500000  -0.2500000), wk =   0.0312500
        k(   25) = (   0.2500000   0.2500000   0.7500000), wk =   0.0312500
        k(   26) = (   0.0000000   0.5000000   0.5000000), wk =   0.0312500
        k(   27) = (  -0.2500000   0.7500000   0.2500000), wk =   0.0312500
        k(   28) = (  -0.5000000   1.0000000   0.0000000), wk =   0.0312500
        k(   29) = (   0.5000000   0.5000000   1.0000000), wk =   0.0312500
        k(   30) = (   0.2500000   0.7500000   0.7500000), wk =   0.0312500
        k(   31) = (   0.0000000   1.0000000   0.5000000), wk =   0.0312500
        k(   32) = (  -0.2500000   1.2500000   0.2500000), wk =   0.0312500
        k(   33) = (  -0.5000000  -0.5000000   0.5000000), wk =   0.0312500
        k(   34) = (  -0.7500000  -0.2500000   0.2500000), wk =   0.0312500
        k(   35) = (  -1.0000000   0.0000000   0.0000000), wk =   0.0312500
        k(   36) = (  -1.2500000   0.2500000  -0.2500000), wk =   0.0312500
        k(   37) = (  -0.2500000  -0.2500000   0.7500000), wk =   0.0312500
        k(   38) = (  -0.5000000   0.0000000   0.5000000), wk =   0.0312500
        k(   39) = (  -0.7500000   0.2500000   0.2500000), wk =   0.0312500
        k(   40) = (  -1.0000000   0.5000000   0.0000000), wk =   0.0312500
        k(   41) = (   0.0000000   0.0000000   1.0000000), wk =   0.0312500
        k(   42) = (  -0.2500000   0.2500000   0.7500000), wk =   0.0312500
        k(   43) = (  -0.5000000   0.5000000   0.5000000), wk =   0.0312500
        k(   44) = (  -0.7500000   0.7500000   0.2500000), wk =   0.0312500
        k(   45) = (   0.2500000   0.2500000   1.2500000), wk =   0.0312500
        k(   46) = (   0.0000000   0.5000000   1.0000000), wk =   0.0312500
        k(   47) = (  -0.2500000   0.7500000   0.7500000), wk =   0.0312500
        k(   48) = (  -0.5000000   1.0000000   0.5000000), wk =   0.0312500
        k(   49) = (  -0.7500000  -0.7500000   0.7500000), wk =   0.0312500
        k(   50) = (  -1.0000000  -0.5000000   0.5000000), wk =   0.0312500
        k(   51) = (  -1.2500000  -0.2500000   0.2500000), wk =   0.0312500
        k(   52) = (  -1.5000000   0.0000000   0.0000000), wk =   0.0312500
        k(   53) = (  -0.5000000  -0.5000000   1.0000000), wk =   0.0312500
        k(   54) = (  -0.7500000  -0.2500000   0.7500000), wk =   0.0312500
        k(   55) = (  -1.0000000   0.0000000   0.5000000), wk =   0.0312500
        k(   56) = (  -1.2500000   0.2500000   0.2500000), wk =   0.0312500
        k(   57) = (  -0.2500000  -0.2500000   1.2500000), wk =   0.0312500
        k(   58) = (  -0.5000000   0.0000000   1.0000000), wk =   0.0312500
        k(   59) = (  -0.7500000   0.2500000   0.7500000), wk =   0.0312500
        k(   60) = (  -1.0000000   0.5000000   0.5000000), wk =   0.0312500
        k(   61) = (   0.0000000   0.0000000   1.5000000), wk =   0.0312500
        k(   62) = (  -0.2500000   0.2500000   1.2500000), wk =   0.0312500
        k(   63) = (  -0.5000000   0.5000000   1.0000000), wk =   0.0312500
        k(   64) = (  -0.7500000   0.7500000   0.7500000), wk =   0.0312500

                       cryst. coord.
        k(    1) = (   0.0000000   0.0000000   0.0000000), wk =   0.0312500
        k(    2) = (   0.0000000   0.0000000   0.2500000), wk =   0.0312500
        k(    3) = (   0.0000000   0.0000000   0.5000000), wk =   0.0312500
        k(    4) = (   0.0000000   0.0000000   0.7500000), wk =   0.0312500
        k(    5) = (   0.0000000   0.2500000   0.0000000), wk =   0.0312500
        k(    6) = (   0.0000000   0.2500000   0.2500000), wk =   0.0312500
        k(    7) = (   0.0000000   0.2500000   0.5000000), wk =   0.0312500
        k(    8) = (   0.0000000   0.2500000   0.7500000), wk =   0.0312500
        k(    9) = (   0.0000000   0.5000000   0.0000000), wk =   0.0312500
        k(   10) = (   0.0000000   0.5000000   0.2500000), wk =   0.0312500
        k(   11) = (   0.0000000   0.5000000   0.5000000), wk =   0.0312500
        k(   12) = (   0.0000000   0.5000000   0.7500000), wk =   0.0312500
        k(   13) = (   0.0000000   0.7500000   0.0000000), wk =   0.0312500
        k(   14) = (   0.0000000   0.7500000   0.2500000), wk =   0.0312500
        k(   15) = (   0.0000000   0.7500000   0.5000000), wk =   0.0312500
        k(   16) = (   0.0000000   0.7500000   0.7500000), wk =   0.0312500
        k(   17) = (   0.2500000   0.0000000   0.0000000), wk =   0.0312500
        k(   18) = (   0.2500000   0.0000000   0.2500000), wk =   0.0312500
        k(   19) = (   0.2500000   0.0000000   0.5000000), wk =   0.0312500
        k(   20) = (   0.2500000   0.0000000   0.7500000), wk =   0.0312500
        k(   21) = (   0.2500000   0.2500000   0.0000000), wk =   0.0312500
        k(   22) = (   0.2500000   0.2500000   0.2500000), wk =   0.0312500
        k(   23) = (   0.2500000   0.2500000   0.5000000), wk =   0.0312500
        k(   24) = (   0.2500000   0.2500000   0.7500000), wk =   0.0312500
        k(   25) = (   0.2500000   0.5000000   0.0000000), wk =   0.0312500
        k(   26) = (   0.2500000   0.5000000   0.2500000), wk =   0.0312500
        k(   27) = (   0.2500000   0.5000000   0.5000000), wk =   0.0312500
        k(   28) = (   0.2500000   0.5000000   0.7500000), wk =   0.0312500
        k(   29) = (   0.2500000   0.7500000   0.0000000), wk =   0.0312500
        k(   30) = (   0.2500000   0.7500000   0.2500000), wk =   0.0312500
        k(   31) = (   0.2500000   0.7500000   0.5000000), wk =   0.0312500
        k(   32) = (   0.2500000   0.7500000   0.7500000), wk =   0.0312500
        k(   33) = (   0.5000000   0.0000000   0.0000000), wk =   0.0312500
        k(   34) = (   0.5000000   0.0000000   0.2500000), wk =   0.0312500
        k(   35) = (   0.5000000   0.0000000   0.5000000), wk =   0.0312500
        k(   36) = (   0.5000000   0.0000000   0.7500000), wk =   0.0312500
        k(   37) = (   0.5000000   0.2500000   0.0000000), wk =   0.0312500
        k(   38) = (   0.5000000   0.2500000   0.2500000), wk =   0.0312500
        k(   39) = (   0.5000000   0.2500000   0.5000000), wk =   0.0312500
        k(   40) = (   0.5000000   0.2500000   0.7500000), wk =   0.0312500
        k(   41) = (   0.5000000   0.5000000   0.0000000), wk =   0.0312500
        k(   42) = (   0.5000000   0.5000000   0.2500000), wk =   0.0312500
        k(   43) = (   0.5000000   0.5000000   0.5000000), wk =   0.0312500
        k(   44) = (   0.5000000   0.5000000   0.7500000), wk =   0.0312500
        k(   45) = (   0.5000000   0.7500000   0.0000000), wk =   0.0312500
        k(   46) = (   0.5000000   0.7500000   0.2500000), wk =   0.0312500
        k(   47) = (   0.5000000   0.7500000   0.5000000), wk =   0.0312500
        k(   48) = (   0.5000000   0.7500000   0.7500000), wk =   0.0312500
        k(   49) = (   0.7500000   0.0000000   0.0000000), wk =   0.0312500
        k(   50) = (   0.7500000   0.0000000   0.2500000), wk =   0.0312500
        k(   51) = (   0.7500000   0.0000000   0.5000000), wk =   0.0312500
        k(   52) = (   0.7500000   0.0000000   0.7500000), wk =   0.0312500
        k(   53) = (   0.7500000   0.2500000   0.0000000), wk =   0.0312500
        k(   54) = (   0.7500000   0.2500000   0.2500000), wk =   0.0312500
        k(   55) = (   0.7500000   0.2500000   0.5000000), wk =   0.0312500
        k(   56) = (   0.7500000   0.2500000   0.7500000), wk =   0.0312500
        k(   57) = (   0.7500000   0.5000000   0.0000000), wk =   0.0312500
        k(   58) = (   0.7500000   0.5000000   0.2500000), wk =   0.0312500
        k(   59) = (   0.7500000   0.5000000   0.5000000), wk =   0.0312500
        k(   60) = (   0.7500000   0.5000000   0.7500000), wk =   0.0312500
        k(   61) = (   0.7500000   0.7500000   0.0000000), wk =   0.0312500
        k(   62) = (   0.7500000   0.7500000   0.2500000), wk =   0.0312500
        k(   63) = (   0.7500000   0.7500000   0.5000000), wk =   0.0312500
        k(   64) = (   0.7500000   0.7500000   0.7500000), wk =   0.0312500

     Dense  grid:     4477 G-vectors     FFT dimensions: (  24,  24,  24)

     Dynamical RAM for                 wfc:       0.03 MB

     Dynamical RAM for     wfc (w. buffer):       2.08 MB

     Dynamical RAM for           str. fact:       0.01 MB

     Dynamical RAM for           local pot:       0.00 MB

     Dynamical RAM for          nlocal pot:       0.02 MB

     Dynamical RAM for                qrad:       0.23 MB

     Dynamical RAM for          rho,v,vnew:       0.07 MB

     Dynamical RAM for               rhoin:       0.02 MB

     Dynamical RAM for            rho*nmix:       0.14 MB

     Dynamical RAM for           G-vectors:       0.04 MB

     Dynamical RAM for          h,s,v(r/c):       0.16 MB

     Dynamical RAM for          <psi|beta>:       0.01 MB

     Dynamical RAM for                 psi:       0.06 MB

     Dynamical RAM for                hpsi:       0.06 MB

     Dynamical RAM for      wfcinit/wfcrot:       0.08 MB

     Estimated static dynamical RAM per process >       2.54 MB

     Estimated max dynamical RAM per process >       2.98 MB

     Estimated total dynamical RAM >      23.85 MB

     Initial potential from superposition of free atoms

     starting charge       7.9075, renormalised to       8.0000
     Starting wfcs are random

     total cpu time spent up to now is        9.2 secs

     Self-consistent Calculation

     iteration #  1     ecut=    25.00 Ry     beta= 0.70
     Davidson diagonalization with overlap

---- Real-time Memory Report at c_bands before calling an iterative solver
            42 MiB given to the printing process from OS
             0 MiB allocation reported by mallinfo(arena+hblkhd)
         19469 MiB available memory on the node where the printing process lives
------------------
     ethr =  1.00E-02,  avg # of iterations =  7.9

     Threshold (ethr) on eigenvalues was too large:
     Diagonalizing with lowered threshold

     Davidson diagonalization with overlap

---- Real-time Memory Report at c_bands before calling an iterative solver
            43 MiB given to the printing process from OS
             0 MiB allocation reported by mallinfo(arena+hblkhd)
         19377 MiB available memory on the node where the printing process lives
------------------
     ethr =  7.63E-04,  avg # of iterations =  1.0

     total cpu time spent up to now is      102.7 secs

     total energy              =     -15.74576911 Ry
     estimated scf accuracy    <       0.06092615 Ry

     iteration #  2     ecut=    25.00 Ry     beta= 0.70
     Davidson diagonalization with overlap

---- Real-time Memory Report at c_bands before calling an iterative solver
            43 MiB given to the printing process from OS
             0 MiB allocation reported by mallinfo(arena+hblkhd)
         19303 MiB available memory on the node where the printing process lives
------------------
     ethr =  7.62E-04,  avg # of iterations =  1.1

     total cpu time spent up to now is      125.4 secs

     total energy              =     -15.74864962 Ry
     estimated scf accuracy    <       0.00213715 Ry

     iteration #  3     ecut=    25.00 Ry     beta= 0.70
     Davidson diagonalization with overlap

---- Real-time Memory Report at c_bands before calling an iterative solver
            43 MiB given to the printing process from OS
             0 MiB allocation reported by mallinfo(arena+hblkhd)
         19427 MiB available memory on the node where the printing process lives
------------------
     ethr =  2.67E-05,  avg # of iterations =  3.3

     total cpu time spent up to now is      154.6 secs

     total energy              =     -15.74870098 Ry
     estimated scf accuracy    <       0.00005627 Ry

     iteration #  4     ecut=    25.00 Ry     beta= 0.70
     Davidson diagonalization with overlap

---- Real-time Memory Report at c_bands before calling an iterative solver
            43 MiB given to the printing process from OS
             0 MiB allocation reported by mallinfo(arena+hblkhd)
         19465 MiB available memory on the node where the printing process lives
------------------
     ethr =  7.03E-07,  avg # of iterations =  3.8

     total cpu time spent up to now is      185.3 secs

     total energy              =     -15.74870359 Ry
     estimated scf accuracy    <       0.00000013 Ry

     iteration #  5     ecut=    25.00 Ry     beta= 0.70
     Davidson diagonalization with overlap

---- Real-time Memory Report at c_bands before calling an iterative solver
            43 MiB given to the printing process from OS
             0 MiB allocation reported by mallinfo(arena+hblkhd)
         19470 MiB available memory on the node where the printing process lives
------------------
     ethr =  1.65E-09,  avg # of iterations =  2.0

     total cpu time spent up to now is      213.4 secs

     End of self-consistent calculation

          k = 0.0000 0.0000 0.0000 (   537 PWs)   bands (ev):

    -5.6364   6.4736   6.4736   6.4736   9.0263   9.0263   9.0263  10.0044
    14.2271  14.2271  14.4711  17.7548  17.7548  17.7548  21.9683  29.8534
    29.8534  29.8534  30.9827  30.9827  32.6708  32.6708  32.6708  35.9513
    35.9513  35.9513  41.8628  41.8628  41.8628  45.2876

     occupation numbers 
     1.0000   1.0000   1.0000   1.0000   0.0000   0.0000   0.0000   0.0000
     0.0000   0.0000   0.0000   0.0000   0.0000   0.0000   0.0000   0.0000
     0.0000   0.0000   0.0000   0.0000   0.0000   0.0000   0.0000   0.0000
     0.0000   0.0000   0.0000   0.0000   0.0000   0.0000

          k =-0.2500 0.2500-0.2500 (   564 PWs)   bands (ev):

    -4.8234   2.4956   5.6971   5.6971   8.5364   9.9769   9.9769  13.5157
    13.6691  13.6691  15.4948  18.4091  21.2318  21.2318  24.4969  24.4969
    24.6941  26.7240  30.8174  30.8174  33.5135  33.5135  34.7106  36.3122
    36.6681  38.6337  38.6337  40.3827  40.3828  41.2942

     occupation numbers 
     1.0000   1.0000   1.0000   1.0000   0.0000   0.0000   0.0000   0.0000
     0.0000   0.0000   0.0000   0.0000   0.0000   0.0000   0.0000   0.0000
     0.0000   0.0000   0.0000   0.0000   0.0000   0.0000   0.0000   0.0000
     0.0000   0.0000   0.0000   0.0000   0.0000   0.0000

          k =-0.5000 0.5000-0.5000 (   568 PWs)   bands (ev):

    -3.2562  -0.6049   5.2528   5.2528   8.0457   9.7851   9.7851  14.1941
    17.0836  17.0836  17.9120  17.9120  17.9633  19.7122  26.1191  26.6382
    28.3136  28.3136  28.5363  28.5363  32.4756  33.1337  33.1337  34.3346
    34.3346  35.0499  37.7631  39.2427  39.2428  39.7398

     occupation numbers 
     1.0000   1.0000   1.0000   1.0000   0.0000   0.0000   0.0000   0.0000
     0.0000   0.0000   0.0000   0.0000   0.0000   0.0000   0.0000   0.0000
     0.0000   0.0000   0.0000   0.0000   0.0000   0.0000   0.0000   0.0000
     0.0000   0.0000   0.0000   0.0000   0.0000   0.0000

          k =-0.7500 0.7500-0.7500 (   564 PWs)   bands (ev):

    -4.8234   2.4956   5.6971   5.6971   8.5364   9.9769   9.9769  13.5157
    13.6691  13.6691  15.4948  18.4091  21.2318  21.2318  24.4969  24.4969
    24.6941  26.7240  30.8174  30.8174  33.5135  33.5135  34.7106  36.3122
    36.6681  38.6337  38.6337  40.3827  40.3828  41.2943

     occupation numbers 
     1.0000   1.0000   1.0000   1.0000   0.0000   0.0000   0.0000   0.0000
     0.0000   0.0000   0.0000   0.0000   0.0000   0.0000   0.0000   0.0000
     0.0000   0.0000   0.0000   0.0000   0.0000   0.0000   0.0000   0.0000
     0.0000   0.0000   0.0000   0.0000   0.0000   0.0000

          k = 0.2500 0.2500 0.2500 (   564 PWs)   bands (ev):

    -4.8234   2.4956   5.6971   5.6971   8.5364   9.9769   9.9769  13.5157
    13.6691  13.6691  15.4948  18.4091  21.2318  21.2318  24.4969  24.4969
    24.6941  26.7240  30.8174  30.8174  33.5135  33.5135  34.7106  36.3122
    36.6681  38.6337  38.6337  40.3827  40.3828  41.2942

     occupation numbers 
     1.0000   1.0000   1.0000   1.0000   0.0000   0.0000   0.0000   0.0000
     0.0000   0.0000   0.0000   0.0000   0.0000   0.0000   0.0000   0.0000
     0.0000   0.0000   0.0000   0.0000   0.0000   0.0000   0.0000   0.0000
     0.0000   0.0000   0.0000   0.0000   0.0000   0.0000

          k = 0.0000 0.5000 0.0000 (   560 PWs)   bands (ev):

    -4.5370   2.9458   4.5389   4.5389   7.5605   9.5764  12.2827  12.2827
    14.6888  15.4483  18.0043  19.5592  19.5592  20.2857  24.0660  24.0660
    24.9901  27.1286  27.6482  31.6379  33.1160  34.1507  34.1507  36.3057
    36.3057  36.4641  37.1704  41.5313  42.0210  42.2357

     occupation numbers 
     1.0000   1.0000   1.0000   1.0000   0.0000   0.0000   0.0000   0.0000
     0.0000   0.0000   0.0000   0.0000   0.0000   0.0000   0.0000   0.0000
     0.0000   0.0000   0.0000   0.0000   0.0000   0.0000   0.0000   0.0000
     0.0000   0.0000   0.0000   0.0000   0.0000   0.0000

          k =-0.2500 0.7500-0.2500 (   558 PWs)   bands (ev):

    -2.8688   0.0222   2.8621   4.2206   7.9480  10.9188  12.2916  12.4191
    16.7876  17.0888  18.7379  19.3150  19.6522  23.4947  24.3794  25.3542
    26.0057  26.2935  26.6184  29.6048  30.5247  31.9280  32.3354  34.5916
    35.8810  36.1044  36.1921  37.9760  38.9245  41.1563

     occupation numbers 
     1.0000   1.0000   1.0000   1.0000   0.0000   0.0000   0.0000   0.0000
     0.0000   0.0000   0.0000   0.0000   0.0000   0.0000   0.0000   0.0000
     0.0000   0.0000   0.0000   0.0000   0.0000   0.0000   0.0000   0.0000
     0.0000   0.0000   0.0000   0.0000   0.0000   0.0000

          k =-0.5000 1.0000-0.5000 (   554 PWs)   bands (ev):

    -3.5564   0.9423   2.6318   5.1183   8.9090  11.2847  11.6433  12.6899
    12.9057  16.2047  19.1854  19.8367  20.0141  23.2904  23.7293  24.1654
    25.4053  28.0122  28.3343  30.6870  31.5006  32.0460  33.5988  33.8241
    34.6206  36.1399  37.1341  38.0039  41.0005  41.1480

     occupation numbers 
     1.0000   1.0000   1.0000   1.0000   0.0000   0.0000   0.0000   0.0000
     0.0000   0.0000   0.0000   0.0000   0.0000   0.0000   0.0000   0.0000
     0.0000   0.0000   0.0000   0.0000   0.0000   0.0000   0.0000   0.0000
     0.0000   0.0000   0.0000   0.0000   0.0000   0.0000

          k = 0.5000 0.5000 0.5000 (   568 PWs)   bands (ev):

    -3.2562  -0.6049   5.2528   5.2528   8.0457   9.7851   9.7851  14.1941
    17.0836  17.0836  17.9120  17.9120  17.9633  19.7122  26.1191  26.6382
    28.3136  28.3136  28.5363  28.5363  32.4756  33.1337  33.1337  34.3346
    34.3346  35.0499  37.7631  39.2426  39.2426  39.7398

     occupation numbers 
     1.0000   1.0000   1.0000   1.0000   0.0000   0.0000   0.0000   0.0000
     0.0000   0.0000   0.0000   0.0000   0.0000   0.0000   0.0000   0.0000
     0.0000   0.0000   0.0000   0.0000   0.0000   0.0000   0.0000   0.0000
     0.0000   0.0000   0.0000   0.0000   0.0000   0.0000

          k = 0.2500 0.7500 0.2500 (   558 PWs)   bands (ev):

    -2.8688   0.0221   2.8621   4.2206   7.9480  10.9188  12.2916  12.4191
    16.7876  17.0888  18.7379  19.3150  19.6522  23.4947  24.3794  25.3542
    26.0057  26.2935  26.6184  29.6048  30.5247  31.9280  32.3354  34.5916
    35.8810  36.1044  36.1921  37.9760  38.9245  41.1563

     occupation numbers 
     1.0000   1.0000   1.0000   1.0000   0.0000   0.0000   0.0000   0.0000
     0.0000   0.0000   0.0000   0.0000   0.0000   0.0000   0.0000   0.0000
     0.0000   0.0000   0.0000   0.0000   0.0000   0.0000   0.0000   0.0000
     0.0000   0.0000   0.0000   0.0000   0.0000   0.0000

          k = 0.0000 1.0000 0.0000 (   556 PWs)   bands (ev):

    -1.4223  -1.4223   3.5605   3.5605   7.1195   7.1195  16.7290  16.7290
    17.5335  17.5335  19.0884  19.0884  19.7256  19.7256  25.5276  25.5276
    26.3794  26.3794  26.8421  26.8421  28.2127  28.2127  32.3088  32.3088
    36.3183  36.3183  41.0613  41.0614  41.1243  41.1244

     occupation numbers 
     1.0000   1.0000   1.0000   1.0000   0.0000   0.0000   0.0000   0.0000
     0.0000   0.0000   0.0000   0.0000   0.0000   0.0000   0.0000   0.0000
     0.0000   0.0000   0.0000   0.0000   0.0000   0.0000   0.0000   0.0000
     0.0000   0.0000   0.0000   0.0000   0.0000   0.0000

          k =-0.2500 1.2500-0.2500 (   558 PWs)   bands (ev):

    -2.8688   0.0221   2.8621   4.2206   7.9480  10.9188  12.2916  12.4191
    16.7876  17.0888  18.7379  19.3150  19.6522  23.4947  24.3794  25.3542
    26.0057  26.2935  26.6184  29.6048  30.5247  31.9280  32.3354  34.5916
    35.8810  36.1044  36.1921  37.9760  38.9245  41.1563

     occupation numbers 
     1.0000   1.0000   1.0000   1.0000   0.0000   0.0000   0.0000   0.0000
     0.0000   0.0000   0.0000   0.0000   0.0000   0.0000   0.0000   0.0000
     0.0000   0.0000   0.0000   0.0000   0.0000   0.0000   0.0000   0.0000
     0.0000   0.0000   0.0000   0.0000   0.0000   0.0000

          k = 0.7500 0.7500 0.7500 (   564 PWs)   bands (ev):

    -4.8234   2.4956   5.6971   5.6971   8.5364   9.9769   9.9769  13.5157
    13.6691  13.6691  15.4948  18.4091  21.2318  21.2318  24.4969  24.4969
    24.6941  26.7240  30.8174  30.8174  33.5135  33.5135  34.7106  36.3122
    36.6681  38.6337  38.6337  40.3827  40.3827  41.2942

     occupation numbers 
     1.0000   1.0000   1.0000   1.0000   0.0000   0.0000   0.0000   0.0000
     0.0000   0.0000   0.0000   0.0000   0.0000   0.0000   0.0000   0.0000
     0.0000   0.0000   0.0000   0.0000   0.0000   0.0000   0.0000   0.0000
     0.0000   0.0000   0.0000   0.0000   0.0000   0.0000

          k = 0.5000 1.0000 0.5000 (   554 PWs)   bands (ev):

    -3.5564   0.9423   2.6318   5.1183   8.9090  11.2847  11.6433  12.6899
    12.9057  16.2047  19.1854  19.8367  20.0141  23.2904  23.7293  24.1654
    25.4053  28.0122  28.3343  30.6870  31.5006  32.0460  33.5988  33.8240
    34.6206  36.1399  37.1341  38.0039  41.0005  41.1480

     occupation numbers 
     1.0000   1.0000   1.0000   1.0000   0.0000   0.0000   0.0000   0.0000
     0.0000   0.0000   0.0000   0.0000   0.0000   0.0000   0.0000   0.0000
     0.0000   0.0000   0.0000   0.0000   0.0000   0.0000   0.0000   0.0000
     0.0000   0.0000   0.0000   0.0000   0.0000   0.0000

          k = 0.2500 1.2500 0.2500 (   558 PWs)   bands (ev):

    -2.8688   0.0222   2.8621   4.2206   7.9480  10.9188  12.2916  12.4191
    16.7876  17.0888  18.7379  19.3150  19.6522  23.4947  24.3794  25.3542
    26.0057  26.2935  26.6184  29.6048  30.5247  31.9280  32.3354  34.5916
    35.8810  36.1044  36.1921  37.9760  38.9245  41.1562

     occupation numbers 
     1.0000   1.0000   1.0000   1.0000   0.0000   0.0000   0.0000   0.0000
     0.0000   0.0000   0.0000   0.0000   0.0000   0.0000   0.0000   0.0000
     0.0000   0.0000   0.0000   0.0000   0.0000   0.0000   0.0000   0.0000
     0.0000   0.0000   0.0000   0.0000   0.0000   0.0000

          k = 0.0000 1.5000 0.0000 (   560 PWs)   bands (ev):

    -4.5370   2.9458   4.5389   4.5389   7.5605   9.5764  12.2827  12.2827
    14.6888  15.4483  18.0043  19.5592  19.5592  20.2857  24.0660  24.0660
    24.9901  27.1286  27.6482  31.6379  33.1160  34.1507  34.1507  36.3057
    36.3057  36.4641  37.1704  41.5313  42.0210  42.2357

     occupation numbers 
     1.0000   1.0000   1.0000   1.0000   0.0000   0.0000   0.0000   0.0000
     0.0000   0.0000   0.0000   0.0000   0.0000   0.0000   0.0000   0.0000
     0.0000   0.0000   0.0000   0.0000   0.0000   0.0000   0.0000   0.0000
     0.0000   0.0000   0.0000   0.0000   0.0000   0.0000

          k =-0.2500-0.2500 0.2500 (   564 PWs)   bands (ev):

    -4.8234   2.4956   5.6971   5.6971   8.5364   9.9769   9.9769  13.5157
    13.6691  13.6691  15.4948  18.4091  21.2318  21.2318  24.4969  24.4969
    24.6941  26.7240  30.8174  30.8174  33.5135  33.5135  34.7106  36.3122
    36.6681  38.6337  38.6337  40.3827  40.3828  41.2942

     occupation numbers 
     1.0000   1.0000   1.0000   1.0000   0.0000   0.0000   0.0000   0.0000
     0.0000   0.0000   0.0000   0.0000   0.0000   0.0000   0.0000   0.0000
     0.0000   0.0000   0.0000   0.0000   0.0000   0.0000   0.0000   0.0000
     0.0000   0.0000   0.0000   0.0000   0.0000   0.0000

          k =-0.5000 0.0000 0.0000 (   560 PWs)   bands (ev):

    -4.5370   2.9458   4.5389   4.5389   7.5605   9.5764  12.2827  12.2827
    14.6888  15.4483  18.0043  19.5592  19.5592  20.2857  24.0660  24.0660
    24.9901  27.1286  27.6482  31.6379  33.1160  34.1507  34.1507  36.3057
    36.3057  36.4641  37.1704  41.5313  42.0211  42.2357

     occupation numbers 
     1.0000   1.0000   1.0000   1.0000   0.0000   0.0000   0.0000   0.0000
     0.0000   0.0000   0.0000   0.0000   0.0000   0.0000   0.0000   0.0000
     0.0000   0.0000   0.0000   0.0000   0.0000   0.0000   0.0000   0.0000
     0.0000   0.0000   0.0000   0.0000   0.0000   0.0000

          k =-0.7500 0.2500-0.2500 (   558 PWs)   bands (ev):

    -2.8688   0.0222   2.8621   4.2206   7.9480  10.9188  12.2916  12.4191
    16.7876  17.0888  18.7379  19.3150  19.6522  23.4947  24.3794  25.3542
    26.0057  26.2935  26.6184  29.6048  30.5247  31.9280  32.3354  34.5916
    35.8810  36.1044  36.1921  37.9760  38.9245  41.1562

     occupation numbers 
     1.0000   1.0000   1.0000   1.0000   0.0000   0.0000   0.0000   0.0000
     0.0000   0.0000   0.0000   0.0000   0.0000   0.0000   0.0000   0.0000
     0.0000   0.0000   0.0000   0.0000   0.0000   0.0000   0.0000   0.0000
     0.0000   0.0000   0.0000   0.0000   0.0000   0.0000

          k =-1.0000 0.5000-0.5000 (   554 PWs)   bands (ev):

    -3.5564   0.9423   2.6318   5.1183   8.9090  11.2847  11.6433  12.6899
    12.9057  16.2047  19.1854  19.8367  20.0141  23.2904  23.7293  24.1654
    25.4053  28.0121  28.3343  30.6870  31.5006  32.0460  33.5988  33.8240
    34.6206  36.1399  37.1341  38.0039  41.0005  41.1481

     occupation numbers 
     1.0000   1.0000   1.0000   1.0000   0.0000   0.0000   0.0000   0.0000
     0.0000   0.0000   0.0000   0.0000   0.0000   0.0000   0.0000   0.0000
     0.0000   0.0000   0.0000   0.0000   0.0000   0.0000   0.0000   0.0000
     0.0000   0.0000   0.0000   0.0000   0.0000   0.0000

          k = 0.0000 0.0000 0.5000 (   560 PWs)   bands (ev):

    -4.5370   2.9458   4.5389   4.5389   7.5605   9.5764  12.2827  12.2827
    14.6888  15.4483  18.0043  19.5592  19.5592  20.2857  24.0660  24.0660
    24.9901  27.1286  27.6482  31.6379  33.1160  34.1507  34.1507  36.3057
    36.3057  36.4641  37.1704  41.5314  42.0214  42.2357

     occupation numbers 
     1.0000   1.0000   1.0000   1.0000   0.0000   0.0000   0.0000   0.0000
     0.0000   0.0000   0.0000   0.0000   0.0000   0.0000   0.0000   0.0000
     0.0000   0.0000   0.0000   0.0000   0.0000   0.0000   0.0000   0.0000
     0.0000   0.0000   0.0000   0.0000   0.0000   0.0000

          k =-0.2500 0.2500 0.2500 (   564 PWs)   bands (ev):

    -4.8234   2.4956   5.6971   5.6971   8.5364   9.9769   9.9769  13.5157
    13.6691  13.6691  15.4948  18.4091  21.2318  21.2318  24.4969  24.4969
    24.6941  26.7240  30.8174  30.8174  33.5135  33.5135  34.7106  36.3122
    36.6681  38.6337  38.6337  40.3827  40.3827  41.2942

     occupation numbers 
     1.0000   1.0000   1.0000   1.0000   0.0000   0.0000   0.0000   0.0000
     0.0000   0.0000   0.0000   0.0000   0.0000   0.0000   0.0000   0.0000
     0.0000   0.0000   0.0000   0.0000   0.0000   0.0000   0.0000   0.0000
     0.0000   0.0000   0.0000   0.0000   0.0000   0.0000

          k =-0.5000 0.5000 0.0000 (   554 PWs)   bands (ev):

    -3.5564   0.9423   2.6318   5.1183   8.9090  11.2847  11.6433  12.6899
    12.9057  16.2047  19.1854  19.8367  20.0141  23.2904  23.7293  24.1654
    25.4053  28.0122  28.3343  30.6870  31.5006  32.0460  33.5988  33.8241
    34.6206  36.1399  37.1341  38.0039  41.0005  41.1480

     occupation numbers 
     1.0000   1.0000   1.0000   1.0000   0.0000   0.0000   0.0000   0.0000
     0.0000   0.0000   0.0000   0.0000   0.0000   0.0000   0.0000   0.0000
     0.0000   0.0000   0.0000   0.0000   0.0000   0.0000   0.0000   0.0000
     0.0000   0.0000   0.0000   0.0000   0.0000   0.0000

          k =-0.7500 0.7500-0.2500 (   558 PWs)   bands (ev):

    -2.8688   0.0222   2.8621   4.2206   7.9480  10.9188  12.2916  12.4191
    16.7876  17.0888  18.7379  19.3150  19.6522  23.4947  24.3794  25.3542
    26.0057  26.2935  26.6184  29.6048  30.5247  31.9280  32.3354  34.5916
    35.8810  36.1044  36.1921  37.9760  38.9245  41.1562

     occupation numbers 
     1.0000   1.0000   1.0000   1.0000   0.0000   0.0000   0.0000   0.0000
     0.0000   0.0000   0.0000   0.0000   0.0000   0.0000   0.0000   0.0000
     0.0000   0.0000   0.0000   0.0000   0.0000   0.0000   0.0000   0.0000
     0.0000   0.0000   0.0000   0.0000   0.0000   0.0000

          k = 0.2500 0.2500 0.7500 (   558 PWs)   bands (ev):

    -2.8688   0.0221   2.8621   4.2206   7.9480  10.9188  12.2916  12.4191
    16.7876  17.0888  18.7379  19.3150  19.6522  23.4947  24.3794  25.3542
    26.0057  26.2935  26.6184  29.6048  30.5247  31.9280  32.3354  34.5916
    35.8810  36.1044  36.1921  37.9760  38.9246  41.1562

     occupation numbers 
     1.0000   1.0000   1.0000   1.0000   0.0000   0.0000   0.0000   0.0000
     0.0000   0.0000   0.0000   0.0000   0.0000   0.0000   0.0000   0.0000
     0.0000   0.0000   0.0000   0.0000   0.0000   0.0000   0.0000   0.0000
     0.0000   0.0000   0.0000   0.0000   0.0000   0.0000

          k = 0.0000 0.5000 0.5000 (   554 PWs)   bands (ev):

    -3.5564   0.9423   2.6318   5.1183   8.9090  11.2847  11.6433  12.6899
    12.9057  16.2047  19.1854  19.8367  20.0141  23.2904  23.7293  24.1654
    25.4053  28.0122  28.3343  30.6870  31.5006  32.0460  33.5988  33.8241
    34.6206  36.1399  37.1341  38.0039  41.0006  41.1480

     occupation numbers 
     1.0000   1.0000   1.0000   1.0000   0.0000   0.0000   0.0000   0.0000
     0.0000   0.0000   0.0000   0.0000   0.0000   0.0000   0.0000   0.0000
     0.0000   0.0000   0.0000   0.0000   0.0000   0.0000   0.0000   0.0000
     0.0000   0.0000   0.0000   0.0000   0.0000   0.0000

          k =-0.2500 0.7500 0.2500 (   558 PWs)   bands (ev):

    -2.8688   0.0222   2.8621   4.2206   7.9480  10.9188  12.2916  12.4191
    16.7876  17.0888  18.7379  19.3150  19.6522  23.4947  24.3794  25.3542
    26.0057  26.2935  26.6184  29.6048  30.5247  31.9280  32.3354  34.5916
    35.8810  36.1044  36.1921  37.9760  38.9245  41.1562

     occupation numbers 
     1.0000   1.0000   1.0000   1.0000   0.0000   0.0000   0.0000   0.0000
     0.0000   0.0000   0.0000   0.0000   0.0000   0.0000   0.0000   0.0000
     0.0000   0.0000   0.0000   0.0000   0.0000   0.0000   0.0000   0.0000
     0.0000   0.0000   0.0000   0.0000   0.0000   0.0000

          k =-0.5000 1.0000 0.0000 (   560 PWs)   bands (ev):

    -1.2491  -1.2491   2.5243   2.5243  10.7304  10.7304  11.5164  11.5164
    17.1720  17.1720  19.6558  19.6558  23.0480  23.0480  25.2028  25.2028
    25.6608  25.6608  26.5490  26.5490  30.4316  30.4316  34.1875  34.1875
    34.3810  34.3810  36.2348  36.2348  39.5704  39.5704

     occupation numbers 
     1.0000   1.0000   1.0000   1.0000   0.0000   0.0000   0.0000   0.0000
     0.0000   0.0000   0.0000   0.0000   0.0000   0.0000   0.0000   0.0000
     0.0000   0.0000   0.0000   0.0000   0.0000   0.0000   0.0000   0.0000
     0.0000   0.0000   0.0000   0.0000   0.0000   0.0000

          k = 0.5000 0.5000 1.0000 (   554 PWs)   bands (ev):

    -3.5564   0.9423   2.6318   5.1183   8.9090  11.2847  11.6433  12.6899
    12.9057  16.2047  19.1854  19.8367  20.0141  23.2904  23.7293  24.1654
    25.4053  28.0122  28.3343  30.6870  31.5006  32.0460  33.5988  33.8240
    34.6206  36.1399  37.1341  38.0039  41.0005  41.1480

     occupation numbers 
     1.0000   1.0000   1.0000   1.0000   0.0000   0.0000   0.0000   0.0000
     0.0000   0.0000   0.0000   0.0000   0.0000   0.0000   0.0000   0.0000
     0.0000   0.0000   0.0000   0.0000   0.0000   0.0000   0.0000   0.0000
     0.0000   0.0000   0.0000   0.0000   0.0000   0.0000

          k = 0.2500 0.7500 0.7500 (   558 PWs)   bands (ev):

    -2.8688   0.0222   2.8621   4.2206   7.9480  10.9188  12.2916  12.4191
    16.7876  17.0888  18.7379  19.3150  19.6522  23.4947  24.3794  25.3542
    26.0057  26.2935  26.6184  29.6048  30.5247  31.9280  32.3354  34.5916
    35.8810  36.1044  36.1921  37.9760  38.9245  41.1562

     occupation numbers 
     1.0000   1.0000   1.0000   1.0000   0.0000   0.0000   0.0000   0.0000
     0.0000   0.0000   0.0000   0.0000   0.0000   0.0000   0.0000   0.0000
     0.0000   0.0000   0.0000   0.0000   0.0000   0.0000   0.0000   0.0000
     0.0000   0.0000   0.0000   0.0000   0.0000   0.0000

          k = 0.0000 1.0000 0.5000 (   560 PWs)   bands (ev):

    -1.2491  -1.2491   2.5243   2.5243  10.7304  10.7304  11.5164  11.5164
    17.1720  17.1720  19.6558  19.6558  23.0480  23.0480  25.2028  25.2028
    25.6608  25.6608  26.5490  26.5490  30.4316  30.4316  34.1875  34.1875
    34.3810  34.3810  36.2348  36.2348  39.5704  39.5704

     occupation numbers 
     1.0000   1.0000   1.0000   1.0000   0.0000   0.0000   0.0000   0.0000
     0.0000   0.0000   0.0000   0.0000   0.0000   0.0000   0.0000   0.0000
     0.0000   0.0000   0.0000   0.0000   0.0000   0.0000   0.0000   0.0000
     0.0000   0.0000   0.0000   0.0000   0.0000   0.0000

          k =-0.2500 1.2500 0.2500 (   558 PWs)   bands (ev):

    -2.8688   0.0222   2.8621   4.2206   7.9480  10.9188  12.2916  12.4191
    16.7876  17.0888  18.7379  19.3150  19.6522  23.4947  24.3794  25.3542
    26.0057  26.2935  26.6184  29.6048  30.5247  31.9280  32.3354  34.5916
    35.8810  36.1044  36.1921  37.9760  38.9245  41.1563

     occupation numbers 
     1.0000   1.0000   1.0000   1.0000   0.0000   0.0000   0.0000   0.0000
     0.0000   0.0000   0.0000   0.0000   0.0000   0.0000   0.0000   0.0000
     0.0000   0.0000   0.0000   0.0000   0.0000   0.0000   0.0000   0.0000
     0.0000   0.0000   0.0000   0.0000   0.0000   0.0000

          k =-0.5000-0.5000 0.5000 (   568 PWs)   bands (ev):

    -3.2562  -0.6049   5.2528   5.2528   8.0457   9.7851   9.7851  14.1941
    17.0836  17.0836  17.9120  17.9120  17.9633  19.7123  26.1191  26.6382
    28.3136  28.3136  28.5363  28.5363  32.4756  33.1337  33.1337  34.3346
    34.3346  35.0499  37.7631  39.2426  39.2426  39.7397

     occupation numbers 
     1.0000   1.0000   1.0000   1.0000   0.0000   0.0000   0.0000   0.0000
     0.0000   0.0000   0.0000   0.0000   0.0000   0.0000   0.0000   0.0000
     0.0000   0.0000   0.0000   0.0000   0.0000   0.0000   0.0000   0.0000
     0.0000   0.0000   0.0000   0.0000   0.0000   0.0000

          k =-0.7500-0.2500 0.2500 (   558 PWs)   bands (ev):

    -2.8688   0.0222   2.8621   4.2206   7.9480  10.9188  12.2916  12.4191
    16.7876  17.0888  18.7379  19.3150  19.6522  23.4947  24.3794  25.3542
    26.0057  26.2935  26.6184  29.6048  30.5247  31.9280  32.3354  34.5916
    35.8810  36.1044  36.1921  37.9760  38.9245  41.1562

     occupation numbers 
     1.0000   1.0000   1.0000   1.0000   0.0000   0.0000   0.0000   0.0000
     0.0000   0.0000   0.0000   0.0000   0.0000   0.0000   0.0000   0.0000
     0.0000   0.0000   0.0000   0.0000   0.0000   0.0000   0.0000   0.0000
     0.0000   0.0000   0.0000   0.0000   0.0000   0.0000

          k =-1.0000 0.0000 0.0000 (   556 PWs)   bands (ev):

    -1.4223  -1.4223   3.5605   3.5605   7.1195   7.1195  16.7290  16.7290
    17.5335  17.5335  19.0884  19.0884  19.7256  19.7256  25.5276  25.5276
    26.3794  26.3794  26.8421  26.8421  28.2127  28.2127  32.3088  32.3088
    36.3183  36.3183  41.0613  41.0614  41.1243  41.1244

     occupation numbers 
     1.0000   1.0000   1.0000   1.0000   0.0000   0.0000   0.0000   0.0000
     0.0000   0.0000   0.0000   0.0000   0.0000   0.0000   0.0000   0.0000
     0.0000   0.0000   0.0000   0.0000   0.0000   0.0000   0.0000   0.0000
     0.0000   0.0000   0.0000   0.0000   0.0000   0.0000

          k =-1.2500 0.2500-0.2500 (   558 PWs)   bands (ev):

    -2.8688   0.0222   2.8621   4.2206   7.9480  10.9188  12.2916  12.4191
    16.7876  17.0888  18.7379  19.3150  19.6522  23.4947  24.3794  25.3542
    26.0057  26.2935  26.6184  29.6048  30.5247  31.9280  32.3354  34.5916
    35.8810  36.1044  36.1921  37.9760  38.9245  41.1563

     occupation numbers 
     1.0000   1.0000   1.0000   1.0000   0.0000   0.0000   0.0000   0.0000
     0.0000   0.0000   0.0000   0.0000   0.0000   0.0000   0.0000   0.0000
     0.0000   0.0000   0.0000   0.0000   0.0000   0.0000   0.0000   0.0000
     0.0000   0.0000   0.0000   0.0000   0.0000   0.0000

          k =-0.2500-0.2500 0.7500 (   558 PWs)   bands (ev):

    -2.8688   0.0222   2.8621   4.2206   7.9480  10.9188  12.2916  12.4191
    16.7876  17.0888  18.7379  19.3150  19.6522  23.4947  24.3794  25.3542
    26.0057  26.2935  26.6184  29.6048  30.5247  31.9280  32.3354  34.5916
    35.8810  36.1044  36.1921  37.9760  38.9246  41.1562

     occupation numbers 
     1.0000   1.0000   1.0000   1.0000   0.0000   0.0000   0.0000   0.0000
     0.0000   0.0000   0.0000   0.0000   0.0000   0.0000   0.0000   0.0000
     0.0000   0.0000   0.0000   0.0000   0.0000   0.0000   0.0000   0.0000
     0.0000   0.0000   0.0000   0.0000   0.0000   0.0000

          k =-0.5000 0.0000 0.5000 (   554 PWs)   bands (ev):

    -3.5564   0.9423   2.6318   5.1183   8.9090  11.2847  11.6433  12.6899
    12.9057  16.2047  19.1854  19.8367  20.0141  23.2904  23.7293  24.1654
    25.4053  28.0122  28.3343  30.6870  31.5006  32.0460  33.5988  33.8240
    34.6206  36.1399  37.1341  38.0039  41.0005  41.1480

     occupation numbers 
     1.0000   1.0000   1.0000   1.0000   0.0000   0.0000   0.0000   0.0000
     0.0000   0.0000   0.0000   0.0000   0.0000   0.0000   0.0000   0.0000
     0.0000   0.0000   0.0000   0.0000   0.0000   0.0000   0.0000   0.0000
     0.0000   0.0000   0.0000   0.0000   0.0000   0.0000

          k =-0.7500 0.2500 0.2500 (   558 PWs)   bands (ev):

    -2.8688   0.0222   2.8621   4.2206   7.9480  10.9188  12.2916  12.4191
    16.7876  17.0888  18.7379  19.3150  19.6522  23.4947  24.3794  25.3542
    26.0057  26.2935  26.6184  29.6048  30.5247  31.9280  32.3354  34.5916
    35.8810  36.1044  36.1921  37.9760  38.9245  41.1562

     occupation numbers 
     1.0000   1.0000   1.0000   1.0000   0.0000   0.0000   0.0000   0.0000
     0.0000   0.0000   0.0000   0.0000   0.0000   0.0000   0.0000   0.0000
     0.0000   0.0000   0.0000   0.0000   0.0000   0.0000   0.0000   0.0000
     0.0000   0.0000   0.0000   0.0000   0.0000   0.0000

          k =-1.0000 0.5000 0.0000 (   560 PWs)   bands (ev):

    -1.2491  -1.2491   2.5243   2.5243  10.7304  10.7304  11.5164  11.5164
    17.1720  17.1720  19.6558  19.6558  23.0480  23.0480  25.2028  25.2028
    25.6608  25.6608  26.5490  26.5490  30.4316  30.4316  34.1875  34.1875
    34.3810  34.3810  36.2348  36.2348  39.5704  39.5704

     occupation numbers 
     1.0000   1.0000   1.0000   1.0000   0.0000   0.0000   0.0000   0.0000
     0.0000   0.0000   0.0000   0.0000   0.0000   0.0000   0.0000   0.0000
     0.0000   0.0000   0.0000   0.0000   0.0000   0.0000   0.0000   0.0000
     0.0000   0.0000   0.0000   0.0000   0.0000   0.0000

          k = 0.0000 0.0000 1.0000 (   556 PWs)   bands (ev):

    -1.4223  -1.4223   3.5605   3.5605   7.1195   7.1195  16.7290  16.7290
    17.5335  17.5335  19.0884  19.0884  19.7256  19.7256  25.5276  25.5276
    26.3794  26.3794  26.8421  26.8421  28.2127  28.2127  32.3088  32.3088
    36.3183  36.3183  41.0613  41.0615  41.1243  41.1244

     occupation numbers 
     1.0000   1.0000   1.0000   1.0000   0.0000   0.0000   0.0000   0.0000
     0.0000   0.0000   0.0000   0.0000   0.0000   0.0000   0.0000   0.0000
     0.0000   0.0000   0.0000   0.0000   0.0000   0.0000   0.0000   0.0000
     0.0000   0.0000   0.0000   0.0000   0.0000   0.0000

          k =-0.2500 0.2500 0.7500 (   558 PWs)   bands (ev):

    -2.8688   0.0222   2.8621   4.2206   7.9480  10.9188  12.2916  12.4191
    16.7876  17.0888  18.7379  19.3150  19.6522  23.4947  24.3794  25.3542
    26.0057  26.2935  26.6184  29.6048  30.5247  31.9280  32.3354  34.5916
    35.8810  36.1044  36.1921  37.9760  38.9245  41.1562

     occupation numbers 
     1.0000   1.0000   1.0000   1.0000   0.0000   0.0000   0.0000   0.0000
     0.0000   0.0000   0.0000   0.0000   0.0000   0.0000   0.0000   0.0000
     0.0000   0.0000   0.0000   0.0000   0.0000   0.0000   0.0000   0.0000
     0.0000   0.0000   0.0000   0.0000   0.0000   0.0000

          k =-0.5000 0.5000 0.5000 (   568 PWs)   bands (ev):

    -3.2562  -0.6049   5.2528   5.2528   8.0457   9.7851   9.7851  14.1941
    17.0836  17.0836  17.9120  17.9120  17.9633  19.7122  26.1191  26.6382
    28.3136  28.3136  28.5363  28.5363  32.4756  33.1337  33.1337  34.3346
    34.3346  35.0499  37.7631  39.2426  39.2426  39.7398

     occupation numbers 
     1.0000   1.0000   1.0000   1.0000   0.0000   0.0000   0.0000   0.0000
     0.0000   0.0000   0.0000   0.0000   0.0000   0.0000   0.0000   0.0000
     0.0000   0.0000   0.0000   0.0000   0.0000   0.0000   0.0000   0.0000
     0.0000   0.0000   0.0000   0.0000   0.0000   0.0000

          k =-0.7500 0.7500 0.2500 (   558 PWs)   bands (ev):

    -2.8688   0.0222   2.8621   4.2206   7.9480  10.9188  12.2916  12.4191
    16.7876  17.0888  18.7379  19.3150  19.6522  23.4947  24.3794  25.3542
    26.0057  26.2935  26.6184  29.6048  30.5247  31.9280  32.3354  34.5916
    35.8810  36.1044  36.1921  37.9760  38.9245  41.1563

     occupation numbers 
     1.0000   1.0000   1.0000   1.0000   0.0000   0.0000   0.0000   0.0000
     0.0000   0.0000   0.0000   0.0000   0.0000   0.0000   0.0000   0.0000
     0.0000   0.0000   0.0000   0.0000   0.0000   0.0000   0.0000   0.0000
     0.0000   0.0000   0.0000   0.0000   0.0000   0.0000

          k = 0.2500 0.2500 1.2500 (   558 PWs)   bands (ev):

    -2.8688   0.0222   2.8621   4.2206   7.9480  10.9188  12.2916  12.4191
    16.7876  17.0888  18.7379  19.3150  19.6522  23.4947  24.3794  25.3542
    26.0057  26.2935  26.6184  29.6048  30.5247  31.9280  32.3354  34.5916
    35.8810  36.1044  36.1921  37.9760  38.9245  41.1562

     occupation numbers 
     1.0000   1.0000   1.0000   1.0000   0.0000   0.0000   0.0000   0.0000
     0.0000   0.0000   0.0000   0.0000   0.0000   0.0000   0.0000   0.0000
     0.0000   0.0000   0.0000   0.0000   0.0000   0.0000   0.0000   0.0000
     0.0000   0.0000   0.0000   0.0000   0.0000   0.0000

          k = 0.0000 0.5000 1.0000 (   560 PWs)   bands (ev):

    -1.2491  -1.2491   2.5243   2.5243  10.7304  10.7304  11.5164  11.5164
    17.1720  17.1720  19.6558  19.6558  23.0480  23.0480  25.2028  25.2028
    25.6608  25.6608  26.5490  26.5490  30.4316  30.4316  34.1875  34.1875
    34.3810  34.3810  36.2348  36.2348  39.5704  39.5704

     occupation numbers 
     1.0000   1.0000   1.0000   1.0000   0.0000   0.0000   0.0000   0.0000
     0.0000   0.0000   0.0000   0.0000   0.0000   0.0000   0.0000   0.0000
     0.0000   0.0000   0.0000   0.0000   0.0000   0.0000   0.0000   0.0000
     0.0000   0.0000   0.0000   0.0000   0.0000   0.0000

          k =-0.2500 0.7500 0.7500 (   558 PWs)   bands (ev):

    -2.8688   0.0222   2.8621   4.2206   7.9480  10.9188  12.2916  12.4191
    16.7876  17.0888  18.7379  19.3150  19.6522  23.4947  24.3794  25.3542
    26.0057  26.2935  26.6184  29.6048  30.5247  31.9280  32.3354  34.5916
    35.8810  36.1044  36.1921  37.9760  38.9245  41.1562

     occupation numbers 
     1.0000   1.0000   1.0000   1.0000   0.0000   0.0000   0.0000   0.0000
     0.0000   0.0000   0.0000   0.0000   0.0000   0.0000   0.0000   0.0000
     0.0000   0.0000   0.0000   0.0000   0.0000   0.0000   0.0000   0.0000
     0.0000   0.0000   0.0000   0.0000   0.0000   0.0000

          k =-0.5000 1.0000 0.5000 (   554 PWs)   bands (ev):

    -3.5564   0.9423   2.6318   5.1183   8.9090  11.2847  11.6433  12.6899
    12.9057  16.2047  19.1854  19.8367  20.0141  23.2904  23.7293  24.1654
    25.4053  28.0122  28.3343  30.6870  31.5006  32.0460  33.5988  33.8240
    34.6206  36.1399  37.1341  38.0039  41.0005  41.1480

     occupation numbers 
     1.0000   1.0000   1.0000   1.0000   0.0000   0.0000   0.0000   0.0000
     0.0000   0.0000   0.0000   0.0000   0.0000   0.0000   0.0000   0.0000
     0.0000   0.0000   0.0000   0.0000   0.0000   0.0000   0.0000   0.0000
     0.0000   0.0000   0.0000   0.0000   0.0000   0.0000

          k =-0.7500-0.7500 0.7500 (   564 PWs)   bands (ev):

    -4.8234   2.4956   5.6971   5.6971   8.5364   9.9769   9.9769  13.5157
    13.6691  13.6691  15.4948  18.4091  21.2318  21.2318  24.4969  24.4969
    24.6941  26.7240  30.8174  30.8174  33.5135  33.5135  34.7106  36.3122
    36.6681  38.6337  38.6337  40.3827  40.3828  41.2942

     occupation numbers 
     1.0000   1.0000   1.0000   1.0000   0.0000   0.0000   0.0000   0.0000
     0.0000   0.0000   0.0000   0.0000   0.0000   0.0000   0.0000   0.0000
     0.0000   0.0000   0.0000   0.0000   0.0000   0.0000   0.0000   0.0000
     0.0000   0.0000   0.0000   0.0000   0.0000   0.0000

          k =-1.0000-0.5000 0.5000 (   554 PWs)   bands (ev):

    -3.5564   0.9423   2.6318   5.1183   8.9090  11.2847  11.6433  12.6899
    12.9057  16.2047  19.1854  19.8367  20.0141  23.2904  23.7293  24.1654
    25.4053  28.0121  28.3343  30.6870  31.5006  32.0460  33.5988  33.8240
    34.6206  36.1399  37.1341  38.0039  41.0005  41.1481

     occupation numbers 
     1.0000   1.0000   1.0000   1.0000   0.0000   0.0000   0.0000   0.0000
     0.0000   0.0000   0.0000   0.0000   0.0000   0.0000   0.0000   0.0000
     0.0000   0.0000   0.0000   0.0000   0.0000   0.0000   0.0000   0.0000
     0.0000   0.0000   0.0000   0.0000   0.0000   0.0000

          k =-1.2500-0.2500 0.2500 (   558 PWs)   bands (ev):

    -2.8688   0.0222   2.8621   4.2206   7.9480  10.9188  12.2916  12.4191
    16.7876  17.0888  18.7379  19.3150  19.6522  23.4947  24.3794  25.3542
    26.0057  26.2935  26.6184  29.6048  30.5247  31.9280  32.3354  34.5916
    35.8810  36.1044  36.1921  37.9760  38.9246  41.1563

     occupation numbers 
     1.0000   1.0000   1.0000   1.0000   0.0000   0.0000   0.0000   0.0000
     0.0000   0.0000   0.0000   0.0000   0.0000   0.0000   0.0000   0.0000
     0.0000   0.0000   0.0000   0.0000   0.0000   0.0000   0.0000   0.0000
     0.0000   0.0000   0.0000   0.0000   0.0000   0.0000

          k =-1.5000 0.0000 0.0000 (   560 PWs)   bands (ev):

    -4.5370   2.9458   4.5389   4.5389   7.5605   9.5764  12.2827  12.2827
    14.6888  15.4483  18.0043  19.5592  19.5592  20.2857  24.0660  24.0660
    24.9901  27.1286  27.6482  31.6379  33.1160  34.1507  34.1507  36.3057
    36.3057  36.4641  37.1704  41.5314  42.0213  42.2356

     occupation numbers 
     1.0000   1.0000   1.0000   1.0000   0.0000   0.0000   0.0000   0.0000
     0.0000   0.0000   0.0000   0.0000   0.0000   0.0000   0.0000   0.0000
     0.0000   0.0000   0.0000   0.0000   0.0000   0.0000   0.0000   0.0000
     0.0000   0.0000   0.0000   0.0000   0.0000   0.0000

          k =-0.5000-0.5000 1.0000 (   554 PWs)   bands (ev):

    -3.5564   0.9423   2.6318   5.1183   8.9090  11.2847  11.6433  12.6899
    12.9057  16.2047  19.1854  19.8367  20.0141  23.2904  23.7293  24.1654
    25.4053  28.0122  28.3343  30.6870  31.5006  32.0460  33.5988  33.8240
    34.6206  36.1399  37.1341  38.0039  41.0005  41.1480

     occupation numbers 
     1.0000   1.0000   1.0000   1.0000   0.0000   0.0000   0.0000   0.0000
     0.0000   0.0000   0.0000   0.0000   0.0000   0.0000   0.0000   0.0000
     0.0000   0.0000   0.0000   0.0000   0.0000   0.0000   0.0000   0.0000
     0.0000   0.0000   0.0000   0.0000   0.0000   0.0000

          k =-0.7500-0.2500 0.7500 (   558 PWs)   bands (ev):

    -2.8688   0.0222   2.8621   4.2206   7.9480  10.9188  12.2916  12.4191
    16.7876  17.0888  18.7379  19.3150  19.6522  23.4947  24.3794  25.3542
    26.0057  26.2935  26.6184  29.6048  30.5247  31.9280  32.3354  34.5916
    35.8810  36.1044  36.1921  37.9760  38.9245  41.1562

     occupation numbers 
     1.0000   1.0000   1.0000   1.0000   0.0000   0.0000   0.0000   0.0000
     0.0000   0.0000   0.0000   0.0000   0.0000   0.0000   0.0000   0.0000
     0.0000   0.0000   0.0000   0.0000   0.0000   0.0000   0.0000   0.0000
     0.0000   0.0000   0.0000   0.0000   0.0000   0.0000

          k =-1.0000 0.0000 0.5000 (   560 PWs)   bands (ev):

    -1.2491  -1.2491   2.5243   2.5243  10.7304  10.7304  11.5164  11.5164
    17.1720  17.1720  19.6558  19.6558  23.0480  23.0480  25.2028  25.2028
    25.6608  25.6608  26.5490  26.5490  30.4316  30.4316  34.1875  34.1875
    34.3810  34.3810  36.2348  36.2348  39.5704  39.5704

     occupation numbers 
     1.0000   1.0000   1.0000   1.0000   0.0000   0.0000   0.0000   0.0000
     0.0000   0.0000   0.0000   0.0000   0.0000   0.0000   0.0000   0.0000
     0.0000   0.0000   0.0000   0.0000   0.0000   0.0000   0.0000   0.0000
     0.0000   0.0000   0.0000   0.0000   0.0000   0.0000

          k =-1.2500 0.2500 0.2500 (   558 PWs)   bands (ev):

    -2.8688   0.0222   2.8621   4.2206   7.9480  10.9188  12.2916  12.4191
    16.7876  17.0888  18.7379  19.3150  19.6522  23.4947  24.3794  25.3542
    26.0057  26.2935  26.6184  29.6048  30.5247  31.9280  32.3354  34.5916
    35.8810  36.1044  36.1921  37.9760  38.9245  41.1563

     occupation numbers 
     1.0000   1.0000   1.0000   1.0000   0.0000   0.0000   0.0000   0.0000
     0.0000   0.0000   0.0000   0.0000   0.0000   0.0000   0.0000   0.0000
     0.0000   0.0000   0.0000   0.0000   0.0000   0.0000   0.0000   0.0000
     0.0000   0.0000   0.0000   0.0000   0.0000   0.0000

          k =-0.2500-0.2500 1.2500 (   558 PWs)   bands (ev):

    -2.8688   0.0221   2.8621   4.2206   7.9480  10.9188  12.2916  12.4191
    16.7876  17.0888  18.7379  19.3150  19.6522  23.4947  24.3794  25.3542
    26.0057  26.2935  26.6184  29.6048  30.5247  31.9280  32.3354  34.5916
    35.8810  36.1044  36.1921  37.9760  38.9245  41.1562

     occupation numbers 
     1.0000   1.0000   1.0000   1.0000   0.0000   0.0000   0.0000   0.0000
     0.0000   0.0000   0.0000   0.0000   0.0000   0.0000   0.0000   0.0000
     0.0000   0.0000   0.0000   0.0000   0.0000   0.0000   0.0000   0.0000
     0.0000   0.0000   0.0000   0.0000   0.0000   0.0000

          k =-0.5000 0.0000 1.0000 (   560 PWs)   bands (ev):

    -1.2491  -1.2491   2.5243   2.5243  10.7304  10.7304  11.5164  11.5164
    17.1720  17.1720  19.6558  19.6558  23.0480  23.0480  25.2028  25.2028
    25.6608  25.6608  26.5490  26.5490  30.4316  30.4316  34.1875  34.1876
    34.3810  34.3810  36.2348  36.2348  39.5704  39.5704

     occupation numbers 
     1.0000   1.0000   1.0000   1.0000   0.0000   0.0000   0.0000   0.0000
     0.0000   0.0000   0.0000   0.0000   0.0000   0.0000   0.0000   0.0000
     0.0000   0.0000   0.0000   0.0000   0.0000   0.0000   0.0000   0.0000
     0.0000   0.0000   0.0000   0.0000   0.0000   0.0000

          k =-0.7500 0.2500 0.7500 (   558 PWs)   bands (ev):

    -2.8688   0.0222   2.8621   4.2206   7.9480  10.9188  12.2916  12.4191
    16.7876  17.0888  18.7379  19.3150  19.6522  23.4947  24.3794  25.3542
    26.0057  26.2935  26.6184  29.6048  30.5247  31.9280  32.3354  34.5916
    35.8810  36.1044  36.1921  37.9760  38.9245  41.1564

     occupation numbers 
     1.0000   1.0000   1.0000   1.0000   0.0000   0.0000   0.0000   0.0000
     0.0000   0.0000   0.0000   0.0000   0.0000   0.0000   0.0000   0.0000
     0.0000   0.0000   0.0000   0.0000   0.0000   0.0000   0.0000   0.0000
     0.0000   0.0000   0.0000   0.0000   0.0000   0.0000

          k =-1.0000 0.5000 0.5000 (   554 PWs)   bands (ev):

    -3.5564   0.9423   2.6318   5.1183   8.9090  11.2847  11.6433  12.6899
    12.9057  16.2047  19.1854  19.8367  20.0141  23.2904  23.7293  24.1654
    25.4053  28.0122  28.3343  30.6870  31.5006  32.0460  33.5988  33.8241
    34.6206  36.1399  37.1341  38.0039  41.0006  41.1481

     occupation numbers 
     1.0000   1.0000   1.0000   1.0000   0.0000   0.0000   0.0000   0.0000
     0.0000   0.0000   0.0000   0.0000   0.0000   0.0000   0.0000   0.0000
     0.0000   0.0000   0.0000   0.0000   0.0000   0.0000   0.0000   0.0000
     0.0000   0.0000   0.0000   0.0000   0.0000   0.0000

          k = 0.0000 0.0000 1.5000 (   560 PWs)   bands (ev):

    -4.5370   2.9458   4.5389   4.5389   7.5605   9.5764  12.2827  12.2827
    14.6888  15.4483  18.0043  19.5592  19.5592  20.2857  24.0660  24.0660
    24.9901  27.1286  27.6482  31.6379  33.1160  34.1507  34.1507  36.3057
    36.3057  36.4641  37.1704  41.5313  42.0210  42.2357

     occupation numbers 
     1.0000   1.0000   1.0000   1.0000   0.0000   0.0000   0.0000   0.0000
     0.0000   0.0000   0.0000   0.0000   0.0000   0.0000   0.0000   0.0000
     0.0000   0.0000   0.0000   0.0000   0.0000   0.0000   0.0000   0.0000
     0.0000   0.0000   0.0000   0.0000   0.0000   0.0000

          k =-0.2500 0.2500 1.2500 (   558 PWs)   bands (ev):

    -2.8688   0.0222   2.8621   4.2206   7.9480  10.9188  12.2916  12.4191
    16.7876  17.0888  18.7379  19.3150  19.6522  23.4947  24.3794  25.3542
    26.0057  26.2935  26.6184  29.6048  30.5247  31.9280  32.3354  34.5916
    35.8810  36.1044  36.1921  37.9760  38.9245  41.1562

     occupation numbers 
     1.0000   1.0000   1.0000   1.0000   0.0000   0.0000   0.0000   0.0000
     0.0000   0.0000   0.0000   0.0000   0.0000   0.0000   0.0000   0.0000
     0.0000   0.0000   0.0000   0.0000   0.0000   0.0000   0.0000   0.0000
     0.0000   0.0000   0.0000   0.0000   0.0000   0.0000

          k =-0.5000 0.5000 1.0000 (   554 PWs)   bands (ev):

    -3.5564   0.9423   2.6318   5.1183   8.9090  11.2847  11.6433  12.6899
    12.9057  16.2047  19.1854  19.8367  20.0141  23.2904  23.7293  24.1654
    25.4053  28.0122  28.3343  30.6870  31.5006  32.0460  33.5988  33.8241
    34.6206  36.1399  37.1341  38.0039  41.0005  41.1480

     occupation numbers 
     1.0000   1.0000   1.0000   1.0000   0.0000   0.0000   0.0000   0.0000
     0.0000   0.0000   0.0000   0.0000   0.0000   0.0000   0.0000   0.0000
     0.0000   0.0000   0.0000   0.0000   0.0000   0.0000   0.0000   0.0000
     0.0000   0.0000   0.0000   0.0000   0.0000   0.0000

          k =-0.7500 0.7500 0.7500 (   564 PWs)   bands (ev):

    -4.8234   2.4956   5.6971   5.6971   8.5364   9.9769   9.9769  13.5157
    13.6691  13.6691  15.4948  18.4091  21.2318  21.2318  24.4969  24.4969
    24.6941  26.7240  30.8174  30.8174  33.5135  33.5135  34.7106  36.3122
    36.6681  38.6337  38.6337  40.3827  40.3828  41.2942

     occupation numbers 
     1.0000   1.0000   1.0000   1.0000   0.0000   0.0000   0.0000   0.0000
     0.0000   0.0000   0.0000   0.0000   0.0000   0.0000   0.0000   0.0000
     0.0000   0.0000   0.0000   0.0000   0.0000   0.0000   0.0000   0.0000
     0.0000   0.0000   0.0000   0.0000   0.0000   0.0000

     highest occupied, lowest unoccupied level (ev):     6.4736    7.1195

!    total energy              =     -15.74870368 Ry
     estimated scf accuracy    <          1.0E-09 Ry

     The total energy is the sum of the following terms:
     one-electron contribution =       4.88766669 Ry
     hartree contribution      =       1.10870994 Ry
     xc contribution           =      -4.84532171 Ry
     ewald contribution        =     -16.89975860 Ry

     convergence has been achieved in   5 iterations

     Writing all to output data dir ./silicon.save/

     init_run     :      9.33s CPU      9.16s WALL (       1 calls)
     electrons    :    211.36s CPU    204.21s WALL (       1 calls)

     Called by init_run:
     wfcinit      :      9.22s CPU      8.93s WALL (       1 calls)
     wfcinit:wfcr :      9.20s CPU      8.92s WALL (      64 calls)
     potinit      :      0.00s CPU      0.00s WALL (       1 calls)
     hinit0       :      0.10s CPU      0.23s WALL (       1 calls)

     Called by electrons:
     c_bands      :    210.57s CPU    203.44s WALL (       6 calls)
     sum_band     :      0.73s CPU      0.70s WALL (       6 calls)
     v_of_rho     :      0.00s CPU      0.00s WALL (       6 calls)
     v_h          :      0.00s CPU      0.00s WALL (       6 calls)
     v_xc         :      0.00s CPU      0.00s WALL (       6 calls)
     mix_rho      :      0.00s CPU      0.00s WALL (       6 calls)

     Called by c_bands:
     init_us_2    :      0.03s CPU      0.02s WALL (     832 calls)
     init_us_2:cp :      0.02s CPU      0.02s WALL (     832 calls)
     cegterg      :    188.30s CPU    185.80s WALL (     384 calls)

     Called by sum_band:
     sum_band:wei :      0.00s CPU      0.00s WALL (       6 calls)
     sum_band:loo :      0.73s CPU      0.70s WALL (       6 calls)
     sum_band:buf :      0.00s CPU      0.00s WALL (     384 calls)
     sum_band:ini :      0.01s CPU      0.01s WALL (     384 calls)

     Called by *egterg:
     cdiaghg      :     45.04s CPU     43.75s WALL (    1547 calls)
     cegterg:over :     40.57s CPU     44.00s WALL (    1227 calls)
     cegterg:upda :      2.59s CPU      4.27s WALL (    1227 calls)
     cegterg:last :      8.22s CPU     13.13s WALL (     823 calls)
     h_psi        :     44.68s CPU     40.32s WALL (    1675 calls)
     g_psi        :      0.01s CPU      0.01s WALL (    1227 calls)

     Called by h_psi:
     h_psi:calbec :      5.41s CPU      5.31s WALL (    1675 calls)
     vloc_psi     :     38.77s CPU     33.41s WALL (    1675 calls)
     add_vuspsi   :      0.46s CPU      1.56s WALL (    1675 calls)

     General routines
     calbec       :      5.40s CPU      5.30s WALL (    1675 calls)
     fft          :      0.10s CPU      0.23s WALL (      60 calls)
     ffts         :      0.00s CPU      0.00s WALL (       6 calls)
     fftw         :     39.15s CPU     33.70s WALL (   75744 calls)

     Parallel routines

     PWSCF        :   3m40.75s CPU   3m33.47s WALL


   This run was terminated on:  21:32:11   6Apr2025            

=------------------------------------------------------------------------------=
   JOB DONE.
=------------------------------------------------------------------------------=
