
     Program PWSCF v.7.2 starts on  6Apr2025 at 21:41:13 

     This program is part of the open-source Quantum ESPRESSO suite
     for quantum simulation of materials; please cite
         "P. Giannozzi et al., J. Phys.:Condens. Matter 21 395502 (2009);
         "P. Giannozzi et al., J. Phys.:Condens. Matter 29 465901 (2017);
         "P. Giannozzi et al., J. Chem. Phys. 152 154105 (2020);
          URL http://www.quantum-espresso.org", 
     in publications or presentations arising from this work. More details at
     http://www.quantum-espresso.org/quote

     Parallel version (MPI), running on     8 processors

     MPI processes distributed on     1 nodes
     19400 MiB available memory on the printing compute node when the environment starts

     Reading input from ./si_q.scf.in

     Current dimensions of program PWSCF are:
     Max number of different atomic species (ntypx) = 10
     Max number of k-points (npk) =  40000
     Max angular momentum in pseudopotentials (lmaxx) =  4

     R & G space division:  proc/nbgrp/npool/nimage =       8
     Subspace diagonalization in iterative solution of the eigenvalue problem:
     a serial algorithm will be used


     Parallelization info
     --------------------
     sticks:   dense  smooth     PW     G-vecs:    dense   smooth      PW
     Min          45      45     15                  558      558     117
     Max          46      46     16                  560      560     121
     Sum         361     361    121                 4477     4477     941

     Using Slab Decomposition



     bravais-lattice index     =            2
     lattice parameter (alat)  =      10.2000  a.u.
     unit-cell volume          =     265.3020 (a.u.)^3
     number of atoms/cell      =            2
     number of atomic types    =            1
     number of electrons       =         8.00
     number of Kohn-Sham states=           30
     kinetic-energy cutoff     =      25.0000  Ry
     charge density cutoff     =     100.0000  Ry
     scf convergence threshold =      1.0E-08
     mixing beta               =       0.7000
     number of iterations used =            8  plain     mixing
     Exchange-correlation= PBE
                           (   1   4   3   4   0   0   0)

     celldm(1)=  10.200000  celldm(2)=   0.000000  celldm(3)=   0.000000
     celldm(4)=   0.000000  celldm(5)=   0.000000  celldm(6)=   0.000000

     crystal axes: (cart. coord. in units of alat)
               a(1) = (  -0.500000   0.000000   0.500000 )  
               a(2) = (   0.000000   0.500000   0.500000 )  
               a(3) = (  -0.500000   0.500000   0.000000 )  

     reciprocal axes: (cart. coord. in units 2 pi/alat)
               b(1) = ( -1.000000 -1.000000  1.000000 )  
               b(2) = (  1.000000  1.000000  1.000000 )  
               b(3) = ( -1.000000  1.000000 -1.000000 )  


     PseudoPot. # 1 for Si read from file:
     ../pseudo/Si_ONCV_PBE-1.2.upf
     MD5 check sum: 7f029a58b69e3aa87b46a36c608bf45e
     Pseudo is Norm-conserving, Zval =  4.0
     Generated using ONCVPSP code by D. R. Hamann
     Using radial grid of  602 points,  4 beta functions with: 
                l(1) =   0
                l(2) =   0
                l(3) =   1
                l(4) =   1

     atomic species   valence    mass     pseudopotential
     Si                4.00    28.08600     Si( 1.00)

     No symmetry found


                                    s                        frac. trans.

      isym =  1     identity                                     

 cryst.   s( 1) = (     1          0          0      )
                  (     0          1          0      )
                  (     0          0          1      )

 cart.    s( 1) = (  1.0000000  0.0000000  0.0000000 )
                  (  0.0000000  1.0000000  0.0000000 )
                  (  0.0000000  0.0000000  1.0000000 )


     point group C_1 (1)    
     there are  1 classes
     the character table:

       E    
A      1.00

     the symmetry operations in each class and the name of the first element:

     E        1
          identity                                               

   Cartesian axes

     site n.     atom                  positions (alat units)
         1        Si     tau(   1) = (  -0.8750000   0.8750000   0.8750000  )
         2        Si     tau(   2) = (  -0.1250000   0.1250000   0.1250000  )

   Crystallographic axes

     site n.     atom                  positions (cryst. coord.)
         1        Si     tau(   1) = (  0.8750000  0.8750000  0.8750000  )
         2        Si     tau(   2) = (  0.1250000  0.1250000  0.1250000  )

     number of k points=    64
                       cart. coord. in units 2pi/alat
        k(    1) = (  -0.0010000   0.0010000   0.0010000), wk =   0.0312500
        k(    2) = (  -0.2510000   0.2510000  -0.2490000), wk =   0.0312500
        k(    3) = (  -0.5010000   0.5010000  -0.4990000), wk =   0.0312500
        k(    4) = (  -0.7510000   0.7510000  -0.7490000), wk =   0.0312500
        k(    5) = (   0.2490000   0.2510000   0.2510000), wk =   0.0312500
        k(    6) = (  -0.0010000   0.5010000   0.0010000), wk =   0.0312500
        k(    7) = (  -0.2510000   0.7510000  -0.2490000), wk =   0.0312500
        k(    8) = (  -0.5010000   1.0010000  -0.4990000), wk =   0.0312500
        k(    9) = (   0.4990000   0.5010000   0.5010000), wk =   0.0312500
        k(   10) = (   0.2490000   0.7510000   0.2510000), wk =   0.0312500
        k(   11) = (  -0.0010000   1.0010000   0.0010000), wk =   0.0312500
        k(   12) = (  -0.2510000   1.2510000  -0.2490000), wk =   0.0312500
        k(   13) = (   0.7490000   0.7510000   0.7510000), wk =   0.0312500
        k(   14) = (   0.4990000   1.0010000   0.5010000), wk =   0.0312500
        k(   15) = (   0.2490000   1.2510000   0.2510000), wk =   0.0312500
        k(   16) = (  -0.0010000   1.5010000   0.0010000), wk =   0.0312500
        k(   17) = (  -0.2510000  -0.2490000   0.2510000), wk =   0.0312500
        k(   18) = (  -0.5010000   0.0010000   0.0010000), wk =   0.0312500
        k(   19) = (  -0.7510000   0.2510000  -0.2490000), wk =   0.0312500
        k(   20) = (  -1.0010000   0.5010000  -0.4990000), wk =   0.0312500
        k(   21) = (  -0.0010000   0.0010000   0.5010000), wk =   0.0312500
        k(   22) = (  -0.2510000   0.2510000   0.2510000), wk =   0.0312500
        k(   23) = (  -0.5010000   0.5010000   0.0010000), wk =   0.0312500
        k(   24) = (  -0.7510000   0.7510000  -0.2490000), wk =   0.0312500
        k(   25) = (   0.2490000   0.2510000   0.7510000), wk =   0.0312500
        k(   26) = (  -0.0010000   0.5010000   0.5010000), wk =   0.0312500
        k(   27) = (  -0.2510000   0.7510000   0.2510000), wk =   0.0312500
        k(   28) = (  -0.5010000   1.0010000   0.0010000), wk =   0.0312500
        k(   29) = (   0.4990000   0.5010000   1.0010000), wk =   0.0312500
        k(   30) = (   0.2490000   0.7510000   0.7510000), wk =   0.0312500
        k(   31) = (  -0.0010000   1.0010000   0.5010000), wk =   0.0312500
        k(   32) = (  -0.2510000   1.2510000   0.2510000), wk =   0.0312500
        k(   33) = (  -0.5010000  -0.4990000   0.5010000), wk =   0.0312500
        k(   34) = (  -0.7510000  -0.2490000   0.2510000), wk =   0.0312500
        k(   35) = (  -1.0010000   0.0010000   0.0010000), wk =   0.0312500
        k(   36) = (  -1.2510000   0.2510000  -0.2490000), wk =   0.0312500
        k(   37) = (  -0.2510000  -0.2490000   0.7510000), wk =   0.0312500
        k(   38) = (  -0.5010000   0.0010000   0.5010000), wk =   0.0312500
        k(   39) = (  -0.7510000   0.2510000   0.2510000), wk =   0.0312500
        k(   40) = (  -1.0010000   0.5010000   0.0010000), wk =   0.0312500
        k(   41) = (  -0.0010000   0.0010000   1.0010000), wk =   0.0312500
        k(   42) = (  -0.2510000   0.2510000   0.7510000), wk =   0.0312500
        k(   43) = (  -0.5010000   0.5010000   0.5010000), wk =   0.0312500
        k(   44) = (  -0.7510000   0.7510000   0.2510000), wk =   0.0312500
        k(   45) = (   0.2490000   0.2510000   1.2510000), wk =   0.0312500
        k(   46) = (  -0.0010000   0.5010000   1.0010000), wk =   0.0312500
        k(   47) = (  -0.2510000   0.7510000   0.7510000), wk =   0.0312500
        k(   48) = (  -0.5010000   1.0010000   0.5010000), wk =   0.0312500
        k(   49) = (  -0.7510000  -0.7490000   0.7510000), wk =   0.0312500
        k(   50) = (  -1.0010000  -0.4990000   0.5010000), wk =   0.0312500
        k(   51) = (  -1.2510000  -0.2490000   0.2510000), wk =   0.0312500
        k(   52) = (  -1.5010000   0.0010000   0.0010000), wk =   0.0312500
        k(   53) = (  -0.5010000  -0.4990000   1.0010000), wk =   0.0312500
        k(   54) = (  -0.7510000  -0.2490000   0.7510000), wk =   0.0312500
        k(   55) = (  -1.0010000   0.0010000   0.5010000), wk =   0.0312500
        k(   56) = (  -1.2510000   0.2510000   0.2510000), wk =   0.0312500
        k(   57) = (  -0.2510000  -0.2490000   1.2510000), wk =   0.0312500
        k(   58) = (  -0.5010000   0.0010000   1.0010000), wk =   0.0312500
        k(   59) = (  -0.7510000   0.2510000   0.7510000), wk =   0.0312500
        k(   60) = (  -1.0010000   0.5010000   0.5010000), wk =   0.0312500
        k(   61) = (  -0.0010000   0.0010000   1.5010000), wk =   0.0312500
        k(   62) = (  -0.2510000   0.2510000   1.2510000), wk =   0.0312500
        k(   63) = (  -0.5010000   0.5010000   1.0010000), wk =   0.0312500
        k(   64) = (  -0.7510000   0.7510000   0.7510000), wk =   0.0312500

                       cryst. coord.
        k(    1) = (   0.0010000   0.0010000   0.0010000), wk =   0.0312500
        k(    2) = (   0.0010000   0.0010000   0.2510000), wk =   0.0312500
        k(    3) = (   0.0010000   0.0010000   0.5010000), wk =   0.0312500
        k(    4) = (   0.0010000   0.0010000   0.7510000), wk =   0.0312500
        k(    5) = (   0.0010000   0.2510000   0.0010000), wk =   0.0312500
        k(    6) = (   0.0010000   0.2510000   0.2510000), wk =   0.0312500
        k(    7) = (   0.0010000   0.2510000   0.5010000), wk =   0.0312500
        k(    8) = (   0.0010000   0.2510000   0.7510000), wk =   0.0312500
        k(    9) = (   0.0010000   0.5010000   0.0010000), wk =   0.0312500
        k(   10) = (   0.0010000   0.5010000   0.2510000), wk =   0.0312500
        k(   11) = (   0.0010000   0.5010000   0.5010000), wk =   0.0312500
        k(   12) = (   0.0010000   0.5010000   0.7510000), wk =   0.0312500
        k(   13) = (   0.0010000   0.7510000   0.0010000), wk =   0.0312500
        k(   14) = (   0.0010000   0.7510000   0.2510000), wk =   0.0312500
        k(   15) = (   0.0010000   0.7510000   0.5010000), wk =   0.0312500
        k(   16) = (   0.0010000   0.7510000   0.7510000), wk =   0.0312500
        k(   17) = (   0.2510000   0.0010000   0.0010000), wk =   0.0312500
        k(   18) = (   0.2510000   0.0010000   0.2510000), wk =   0.0312500
        k(   19) = (   0.2510000   0.0010000   0.5010000), wk =   0.0312500
        k(   20) = (   0.2510000   0.0010000   0.7510000), wk =   0.0312500
        k(   21) = (   0.2510000   0.2510000   0.0010000), wk =   0.0312500
        k(   22) = (   0.2510000   0.2510000   0.2510000), wk =   0.0312500
        k(   23) = (   0.2510000   0.2510000   0.5010000), wk =   0.0312500
        k(   24) = (   0.2510000   0.2510000   0.7510000), wk =   0.0312500
        k(   25) = (   0.2510000   0.5010000   0.0010000), wk =   0.0312500
        k(   26) = (   0.2510000   0.5010000   0.2510000), wk =   0.0312500
        k(   27) = (   0.2510000   0.5010000   0.5010000), wk =   0.0312500
        k(   28) = (   0.2510000   0.5010000   0.7510000), wk =   0.0312500
        k(   29) = (   0.2510000   0.7510000   0.0010000), wk =   0.0312500
        k(   30) = (   0.2510000   0.7510000   0.2510000), wk =   0.0312500
        k(   31) = (   0.2510000   0.7510000   0.5010000), wk =   0.0312500
        k(   32) = (   0.2510000   0.7510000   0.7510000), wk =   0.0312500
        k(   33) = (   0.5010000   0.0010000   0.0010000), wk =   0.0312500
        k(   34) = (   0.5010000   0.0010000   0.2510000), wk =   0.0312500
        k(   35) = (   0.5010000   0.0010000   0.5010000), wk =   0.0312500
        k(   36) = (   0.5010000   0.0010000   0.7510000), wk =   0.0312500
        k(   37) = (   0.5010000   0.2510000   0.0010000), wk =   0.0312500
        k(   38) = (   0.5010000   0.2510000   0.2510000), wk =   0.0312500
        k(   39) = (   0.5010000   0.2510000   0.5010000), wk =   0.0312500
        k(   40) = (   0.5010000   0.2510000   0.7510000), wk =   0.0312500
        k(   41) = (   0.5010000   0.5010000   0.0010000), wk =   0.0312500
        k(   42) = (   0.5010000   0.5010000   0.2510000), wk =   0.0312500
        k(   43) = (   0.5010000   0.5010000   0.5010000), wk =   0.0312500
        k(   44) = (   0.5010000   0.5010000   0.7510000), wk =   0.0312500
        k(   45) = (   0.5010000   0.7510000   0.0010000), wk =   0.0312500
        k(   46) = (   0.5010000   0.7510000   0.2510000), wk =   0.0312500
        k(   47) = (   0.5010000   0.7510000   0.5010000), wk =   0.0312500
        k(   48) = (   0.5010000   0.7510000   0.7510000), wk =   0.0312500
        k(   49) = (   0.7510000   0.0010000   0.0010000), wk =   0.0312500
        k(   50) = (   0.7510000   0.0010000   0.2510000), wk =   0.0312500
        k(   51) = (   0.7510000   0.0010000   0.5010000), wk =   0.0312500
        k(   52) = (   0.7510000   0.0010000   0.7510000), wk =   0.0312500
        k(   53) = (   0.7510000   0.2510000   0.0010000), wk =   0.0312500
        k(   54) = (   0.7510000   0.2510000   0.2510000), wk =   0.0312500
        k(   55) = (   0.7510000   0.2510000   0.5010000), wk =   0.0312500
        k(   56) = (   0.7510000   0.2510000   0.7510000), wk =   0.0312500
        k(   57) = (   0.7510000   0.5010000   0.0010000), wk =   0.0312500
        k(   58) = (   0.7510000   0.5010000   0.2510000), wk =   0.0312500
        k(   59) = (   0.7510000   0.5010000   0.5010000), wk =   0.0312500
        k(   60) = (   0.7510000   0.5010000   0.7510000), wk =   0.0312500
        k(   61) = (   0.7510000   0.7510000   0.0010000), wk =   0.0312500
        k(   62) = (   0.7510000   0.7510000   0.2510000), wk =   0.0312500
        k(   63) = (   0.7510000   0.7510000   0.5010000), wk =   0.0312500
        k(   64) = (   0.7510000   0.7510000   0.7510000), wk =   0.0312500

     Dense  grid:     4477 G-vectors     FFT dimensions: (  24,  24,  24)

     Dynamical RAM for                 wfc:       0.03 MB

     Dynamical RAM for     wfc (w. buffer):       2.08 MB

     Dynamical RAM for           str. fact:       0.01 MB

     Dynamical RAM for           local pot:       0.00 MB

     Dynamical RAM for          nlocal pot:       0.02 MB

     Dynamical RAM for                qrad:       0.23 MB

     Dynamical RAM for          rho,v,vnew:       0.07 MB

     Dynamical RAM for               rhoin:       0.02 MB

     Dynamical RAM for            rho*nmix:       0.14 MB

     Dynamical RAM for           G-vectors:       0.04 MB

     Dynamical RAM for          h,s,v(r/c):       0.16 MB

     Dynamical RAM for          <psi|beta>:       0.01 MB

     Dynamical RAM for                 psi:       0.06 MB

     Dynamical RAM for                hpsi:       0.06 MB

     Dynamical RAM for      wfcinit/wfcrot:       0.08 MB

     Estimated static dynamical RAM per process >       2.54 MB

     Estimated max dynamical RAM per process >       2.98 MB

     Estimated total dynamical RAM >      23.85 MB

     Initial potential from superposition of free atoms

     starting charge       7.9075, renormalised to       8.0000
     Starting wfcs are random

     total cpu time spent up to now is        9.3 secs

     Self-consistent Calculation

     iteration #  1     ecut=    25.00 Ry     beta= 0.70
     Davidson diagonalization with overlap

---- Real-time Memory Report at c_bands before calling an iterative solver
            43 MiB given to the printing process from OS
             0 MiB allocation reported by mallinfo(arena+hblkhd)
         19339 MiB available memory on the node where the printing process lives
------------------
     ethr =  1.00E-02,  avg # of iterations =  7.7

     Threshold (ethr) on eigenvalues was too large:
     Diagonalizing with lowered threshold

     Davidson diagonalization with overlap

---- Real-time Memory Report at c_bands before calling an iterative solver
            45 MiB given to the printing process from OS
             0 MiB allocation reported by mallinfo(arena+hblkhd)
         20718 MiB available memory on the node where the printing process lives
------------------
     ethr =  7.63E-04,  avg # of iterations =  1.2

     total cpu time spent up to now is      102.0 secs

     total energy              =     -15.74577233 Ry
     estimated scf accuracy    <       0.06092449 Ry

     iteration #  2     ecut=    25.00 Ry     beta= 0.70
     Davidson diagonalization with overlap

---- Real-time Memory Report at c_bands before calling an iterative solver
            45 MiB given to the printing process from OS
             0 MiB allocation reported by mallinfo(arena+hblkhd)
         20726 MiB available memory on the node where the printing process lives
------------------
     ethr =  7.62E-04,  avg # of iterations =  1.0

     total cpu time spent up to now is      123.9 secs

     total energy              =     -15.74865216 Ry
     estimated scf accuracy    <       0.00213716 Ry

     iteration #  3     ecut=    25.00 Ry     beta= 0.70
     Davidson diagonalization with overlap

---- Real-time Memory Report at c_bands before calling an iterative solver
            45 MiB given to the printing process from OS
             0 MiB allocation reported by mallinfo(arena+hblkhd)
         20724 MiB available memory on the node where the printing process lives
------------------
     ethr =  2.67E-05,  avg # of iterations =  3.1

     total cpu time spent up to now is      152.1 secs

     total energy              =     -15.74870350 Ry
     estimated scf accuracy    <       0.00005624 Ry

     iteration #  4     ecut=    25.00 Ry     beta= 0.70
     Davidson diagonalization with overlap

---- Real-time Memory Report at c_bands before calling an iterative solver
            45 MiB given to the printing process from OS
             0 MiB allocation reported by mallinfo(arena+hblkhd)
         20724 MiB available memory on the node where the printing process lives
------------------
     ethr =  7.03E-07,  avg # of iterations =  4.2

     total cpu time spent up to now is      182.8 secs

     total energy              =     -15.74870610 Ry
     estimated scf accuracy    <       0.00000013 Ry

     iteration #  5     ecut=    25.00 Ry     beta= 0.70
     Davidson diagonalization with overlap

---- Real-time Memory Report at c_bands before calling an iterative solver
            45 MiB given to the printing process from OS
             0 MiB allocation reported by mallinfo(arena+hblkhd)
         20723 MiB available memory on the node where the printing process lives
------------------
     ethr =  1.65E-09,  avg # of iterations =  2.0

     total cpu time spent up to now is      211.1 secs

     End of self-consistent calculation

          k =-0.0010 0.0010 0.0010 (   537 PWs)   bands (ev):

    -5.6364   6.4734   6.4735   6.4735   9.0263   9.0263   9.0264  10.0044
    14.2270  14.2270  14.4711  17.7547  17.7549  17.7549  21.9684  29.8533
    29.8533  29.8533  30.9825  30.9825  32.6709  32.6709  32.6709  35.9513
    35.9515  35.9515  41.8626  41.8628  41.8628  45.2877

     occupation numbers 
     1.0000   1.0000   1.0000   1.0000   0.0000   0.0000   0.0000   0.0000
     0.0000   0.0000   0.0000   0.0000   0.0000   0.0000   0.0000   0.0000
     0.0000   0.0000   0.0000   0.0000   0.0000   0.0000   0.0000   0.0000
     0.0000   0.0000   0.0000   0.0000   0.0000   0.0000

          k =-0.2510 0.2510-0.2490 (   564 PWs)   bands (ev):

    -4.8213   2.4895   5.6917   5.7001   8.5353   9.9728   9.9820  13.5199
    13.6616  13.6817  15.4936  18.4162  21.2277  21.2469  24.4781  24.5011
    24.6914  26.7284  30.8167  30.8187  33.5104  33.5183  34.7025  36.3127
    36.6700  38.6172  38.6308  40.3664  40.3925  41.2805

     occupation numbers 
     1.0000   1.0000   1.0000   1.0000   0.0000   0.0000   0.0000   0.0000
     0.0000   0.0000   0.0000   0.0000   0.0000   0.0000   0.0000   0.0000
     0.0000   0.0000   0.0000   0.0000   0.0000   0.0000   0.0000   0.0000
     0.0000   0.0000   0.0000   0.0000   0.0000   0.0000

          k =-0.5010 0.5010-0.4990 (   568 PWs)   bands (ev):

    -3.2562  -0.6049   5.2526   5.2527   8.0458   9.7851   9.7852  14.1941
    17.0828  17.0835  17.9120  17.9123  17.9636  19.7124  26.1188  26.6384
    28.3124  28.3136  28.5363  28.5374  32.4756  33.1334  33.1335  34.3347
    34.3348  35.0500  37.7633  39.2419  39.2420  39.7402

     occupation numbers 
     1.0000   1.0000   1.0000   1.0000   0.0000   0.0000   0.0000   0.0000
     0.0000   0.0000   0.0000   0.0000   0.0000   0.0000   0.0000   0.0000
     0.0000   0.0000   0.0000   0.0000   0.0000   0.0000   0.0000   0.0000
     0.0000   0.0000   0.0000   0.0000   0.0000   0.0000

          k =-0.7510 0.7510-0.7490 (   564 PWs)   bands (ev):

    -4.8255   2.5017   5.6940   5.7023   8.5377   9.9717   9.9811  13.5090
    13.6591  13.6767  15.4960  18.4020  21.2168  21.2359  24.4927  24.5149
    24.6974  26.7198  30.8156  30.8179  33.5086  33.5169  34.7188  36.3118
    36.6664  38.6365  38.6502  40.3730  40.3988  41.2817

     occupation numbers 
     1.0000   1.0000   1.0000   1.0000   0.0000   0.0000   0.0000   0.0000
     0.0000   0.0000   0.0000   0.0000   0.0000   0.0000   0.0000   0.0000
     0.0000   0.0000   0.0000   0.0000   0.0000   0.0000   0.0000   0.0000
     0.0000   0.0000   0.0000   0.0000   0.0000   0.0000

          k = 0.2490 0.2510 0.2510 (   564 PWs)   bands (ev):

    -4.8213   2.4895   5.6917   5.7001   8.5353   9.9728   9.9820  13.5199
    13.6616  13.6817  15.4936  18.4162  21.2277  21.2469  24.4781  24.5011
    24.6914  26.7284  30.8167  30.8187  33.5104  33.5184  34.7025  36.3127
    36.6700  38.6172  38.6308  40.3664  40.3925  41.2811

     occupation numbers 
     1.0000   1.0000   1.0000   1.0000   0.0000   0.0000   0.0000   0.0000
     0.0000   0.0000   0.0000   0.0000   0.0000   0.0000   0.0000   0.0000
     0.0000   0.0000   0.0000   0.0000   0.0000   0.0000   0.0000   0.0000
     0.0000   0.0000   0.0000   0.0000   0.0000   0.0000

          k =-0.0010 0.5010 0.0010 (   560 PWs)   bands (ev):

    -4.5327   2.9367   4.5350   4.5351   7.5575   9.5686  12.2916  12.2916
    14.6994  15.4532  18.0150  19.5650  19.5653  20.2933  24.0546  24.0548
    24.9766  27.1197  27.6631  31.6475  33.1099  34.1477  34.1477  36.2933
    36.2937  36.4507  37.1501  41.5388  42.0174  42.2525

     occupation numbers 
     1.0000   1.0000   1.0000   1.0000   0.0000   0.0000   0.0000   0.0000
     0.0000   0.0000   0.0000   0.0000   0.0000   0.0000   0.0000   0.0000
     0.0000   0.0000   0.0000   0.0000   0.0000   0.0000   0.0000   0.0000
     0.0000   0.0000   0.0000   0.0000   0.0000   0.0000

          k =-0.2510 0.7510-0.2490 (   558 PWs)   bands (ev):

    -2.8635   0.0180   2.8563   4.2188   7.9455  10.9163  12.2998  12.4271
    16.7829  17.0791  18.7490  19.3248  19.6593  23.5023  24.3779  25.3541
    26.0033  26.2971  26.6033  29.6079  30.5184  31.9122  32.3221  34.6050
    35.8805  36.0896  36.1914  37.9839  38.9225  41.1561

     occupation numbers 
     1.0000   1.0000   1.0000   1.0000   0.0000   0.0000   0.0000   0.0000
     0.0000   0.0000   0.0000   0.0000   0.0000   0.0000   0.0000   0.0000
     0.0000   0.0000   0.0000   0.0000   0.0000   0.0000   0.0000   0.0000
     0.0000   0.0000   0.0000   0.0000   0.0000   0.0000

          k =-0.5010 1.0010-0.4990 (   554 PWs)   bands (ev):

    -3.5564   0.9423   2.6319   5.1183   8.9091  11.2842  11.6437  12.6887
    12.9070  16.2047  19.1852  19.8367  20.0143  23.2904  23.7286  24.1660
    25.4053  28.0122  28.3342  30.6869  31.5007  32.0459  33.5980  33.8249
    34.6205  36.1402  37.1339  38.0042  41.0006  41.1477

     occupation numbers 
     1.0000   1.0000   1.0000   1.0000   0.0000   0.0000   0.0000   0.0000
     0.0000   0.0000   0.0000   0.0000   0.0000   0.0000   0.0000   0.0000
     0.0000   0.0000   0.0000   0.0000   0.0000   0.0000   0.0000   0.0000
     0.0000   0.0000   0.0000   0.0000   0.0000   0.0000

          k = 0.4990 0.5010 0.5010 (   568 PWs)   bands (ev):

    -3.2562  -0.6049   5.2526   5.2527   8.0458   9.7851   9.7852  14.1941
    17.0828  17.0835  17.9120  17.9123  17.9636  19.7124  26.1188  26.6384
    28.3124  28.3136  28.5363  28.5374  32.4756  33.1334  33.1335  34.3347
    34.3348  35.0500  37.7633  39.2419  39.2419  39.7402

     occupation numbers 
     1.0000   1.0000   1.0000   1.0000   0.0000   0.0000   0.0000   0.0000
     0.0000   0.0000   0.0000   0.0000   0.0000   0.0000   0.0000   0.0000
     0.0000   0.0000   0.0000   0.0000   0.0000   0.0000   0.0000   0.0000
     0.0000   0.0000   0.0000   0.0000   0.0000   0.0000

          k = 0.2490 0.7510 0.2510 (   558 PWs)   bands (ev):

    -2.8635   0.0180   2.8562   4.2188   7.9455  10.9163  12.2998  12.4271
    16.7829  17.0791  18.7490  19.3248  19.6593  23.5023  24.3779  25.3541
    26.0033  26.2971  26.6033  29.6079  30.5184  31.9122  32.3221  34.6050
    35.8805  36.0896  36.1914  37.9839  38.9224  41.1562

     occupation numbers 
     1.0000   1.0000   1.0000   1.0000   0.0000   0.0000   0.0000   0.0000
     0.0000   0.0000   0.0000   0.0000   0.0000   0.0000   0.0000   0.0000
     0.0000   0.0000   0.0000   0.0000   0.0000   0.0000   0.0000   0.0000
     0.0000   0.0000   0.0000   0.0000   0.0000   0.0000

          k =-0.0010 1.0010 0.0010 (   556 PWs)   bands (ev):

    -1.4301  -1.4144   3.5604   3.5605   7.1178   7.1213  16.7288  16.7288
    17.5335  17.5335  19.0789  19.0982  19.7182  19.7332  25.5172  25.5375
    26.3788  26.3789  26.8426  26.8428  28.2035  28.2223  32.3019  32.3154
    36.3183  36.3184  41.0549  41.0613  41.1105  41.1444

     occupation numbers 
     1.0000   1.0000   1.0000   1.0000   0.0000   0.0000   0.0000   0.0000
     0.0000   0.0000   0.0000   0.0000   0.0000   0.0000   0.0000   0.0000
     0.0000   0.0000   0.0000   0.0000   0.0000   0.0000   0.0000   0.0000
     0.0000   0.0000   0.0000   0.0000   0.0000   0.0000

          k =-0.2510 1.2510-0.2490 (   558 PWs)   bands (ev):

    -2.8740   0.0263   2.8680   4.2223   7.9506  10.9214  12.2812  12.4133
    16.7911  17.0997  18.7262  19.3057  19.6454  23.4868  24.3809  25.3541
    26.0072  26.2911  26.6336  29.6018  30.5308  31.9431  32.3493  34.5781
    35.8814  36.1188  36.1933  37.9684  38.9267  41.1556

     occupation numbers 
     1.0000   1.0000   1.0000   1.0000   0.0000   0.0000   0.0000   0.0000
     0.0000   0.0000   0.0000   0.0000   0.0000   0.0000   0.0000   0.0000
     0.0000   0.0000   0.0000   0.0000   0.0000   0.0000   0.0000   0.0000
     0.0000   0.0000   0.0000   0.0000   0.0000   0.0000

          k = 0.7490 0.7510 0.7510 (   564 PWs)   bands (ev):

    -4.8255   2.5017   5.6940   5.7023   8.5377   9.9717   9.9811  13.5090
    13.6591  13.6767  15.4960  18.4020  21.2168  21.2359  24.4927  24.5149
    24.6974  26.7198  30.8156  30.8179  33.5086  33.5168  34.7188  36.3118
    36.6664  38.6365  38.6502  40.3730  40.3988  41.2813

     occupation numbers 
     1.0000   1.0000   1.0000   1.0000   0.0000   0.0000   0.0000   0.0000
     0.0000   0.0000   0.0000   0.0000   0.0000   0.0000   0.0000   0.0000
     0.0000   0.0000   0.0000   0.0000   0.0000   0.0000   0.0000   0.0000
     0.0000   0.0000   0.0000   0.0000   0.0000   0.0000

          k = 0.4990 1.0010 0.5010 (   554 PWs)   bands (ev):

    -3.5564   0.9423   2.6319   5.1183   8.9091  11.2842  11.6437  12.6887
    12.9070  16.2047  19.1852  19.8367  20.0143  23.2904  23.7286  24.1660
    25.4053  28.0122  28.3342  30.6869  31.5007  32.0459  33.5980  33.8249
    34.6205  36.1402  37.1339  38.0042  41.0005  41.1476

     occupation numbers 
     1.0000   1.0000   1.0000   1.0000   0.0000   0.0000   0.0000   0.0000
     0.0000   0.0000   0.0000   0.0000   0.0000   0.0000   0.0000   0.0000
     0.0000   0.0000   0.0000   0.0000   0.0000   0.0000   0.0000   0.0000
     0.0000   0.0000   0.0000   0.0000   0.0000   0.0000

          k = 0.2490 1.2510 0.2510 (   558 PWs)   bands (ev):

    -2.8740   0.0263   2.8680   4.2223   7.9506  10.9214  12.2812  12.4133
    16.7911  17.0997  18.7262  19.3057  19.6454  23.4868  24.3809  25.3541
    26.0072  26.2911  26.6336  29.6018  30.5308  31.9431  32.3493  34.5781
    35.8814  36.1188  36.1933  37.9684  38.9268  41.1557

     occupation numbers 
     1.0000   1.0000   1.0000   1.0000   0.0000   0.0000   0.0000   0.0000
     0.0000   0.0000   0.0000   0.0000   0.0000   0.0000   0.0000   0.0000
     0.0000   0.0000   0.0000   0.0000   0.0000   0.0000   0.0000   0.0000
     0.0000   0.0000   0.0000   0.0000   0.0000   0.0000

          k =-0.0010 1.5010 0.0010 (   560 PWs)   bands (ev):

    -4.5414   2.9549   4.5426   4.5427   7.5637   9.5842  12.2737  12.2737
    14.6783  15.4434  17.9936  19.5530  19.5533  20.2786  24.0769  24.0771
    25.0040  27.1376  27.6333  31.6280  33.1219  34.1536  34.1536  36.3174
    36.3178  36.4784  37.1910  41.5235  42.0234  42.2195

     occupation numbers 
     1.0000   1.0000   1.0000   1.0000   0.0000   0.0000   0.0000   0.0000
     0.0000   0.0000   0.0000   0.0000   0.0000   0.0000   0.0000   0.0000
     0.0000   0.0000   0.0000   0.0000   0.0000   0.0000   0.0000   0.0000
     0.0000   0.0000   0.0000   0.0000   0.0000   0.0000

          k =-0.2510-0.2490 0.2510 (   564 PWs)   bands (ev):

    -4.8213   2.4895   5.6917   5.7001   8.5353   9.9728   9.9820  13.5199
    13.6616  13.6817  15.4936  18.4162  21.2277  21.2469  24.4781  24.5011
    24.6914  26.7284  30.8167  30.8187  33.5104  33.5183  34.7025  36.3127
    36.6700  38.6172  38.6308  40.3664  40.3925  41.2805

     occupation numbers 
     1.0000   1.0000   1.0000   1.0000   0.0000   0.0000   0.0000   0.0000
     0.0000   0.0000   0.0000   0.0000   0.0000   0.0000   0.0000   0.0000
     0.0000   0.0000   0.0000   0.0000   0.0000   0.0000   0.0000   0.0000
     0.0000   0.0000   0.0000   0.0000   0.0000   0.0000

          k =-0.5010 0.0010 0.0010 (   560 PWs)   bands (ev):

    -4.5327   2.9367   4.5350   4.5351   7.5575   9.5686  12.2916  12.2916
    14.6994  15.4532  18.0150  19.5650  19.5653  20.2933  24.0546  24.0548
    24.9766  27.1197  27.6631  31.6475  33.1099  34.1477  34.1477  36.2933
    36.2937  36.4507  37.1501  41.5388  42.0175  42.2528

     occupation numbers 
     1.0000   1.0000   1.0000   1.0000   0.0000   0.0000   0.0000   0.0000
     0.0000   0.0000   0.0000   0.0000   0.0000   0.0000   0.0000   0.0000
     0.0000   0.0000   0.0000   0.0000   0.0000   0.0000   0.0000   0.0000
     0.0000   0.0000   0.0000   0.0000   0.0000   0.0000

          k =-0.7510 0.2510-0.2490 (   558 PWs)   bands (ev):

    -2.8635   0.0180   2.8563   4.2188   7.9455  10.9163  12.2998  12.4271
    16.7829  17.0791  18.7490  19.3248  19.6593  23.5023  24.3779  25.3541
    26.0033  26.2971  26.6033  29.6079  30.5184  31.9122  32.3221  34.6050
    35.8805  36.0896  36.1914  37.9839  38.9224  41.1561

     occupation numbers 
     1.0000   1.0000   1.0000   1.0000   0.0000   0.0000   0.0000   0.0000
     0.0000   0.0000   0.0000   0.0000   0.0000   0.0000   0.0000   0.0000
     0.0000   0.0000   0.0000   0.0000   0.0000   0.0000   0.0000   0.0000
     0.0000   0.0000   0.0000   0.0000   0.0000   0.0000

          k =-1.0010 0.5010-0.4990 (   554 PWs)   bands (ev):

    -3.5564   0.9423   2.6319   5.1183   8.9091  11.2842  11.6437  12.6887
    12.9070  16.2047  19.1852  19.8367  20.0143  23.2904  23.7286  24.1660
    25.4053  28.0122  28.3342  30.6869  31.5007  32.0459  33.5980  33.8249
    34.6205  36.1402  37.1339  38.0042  41.0004  41.1476

     occupation numbers 
     1.0000   1.0000   1.0000   1.0000   0.0000   0.0000   0.0000   0.0000
     0.0000   0.0000   0.0000   0.0000   0.0000   0.0000   0.0000   0.0000
     0.0000   0.0000   0.0000   0.0000   0.0000   0.0000   0.0000   0.0000
     0.0000   0.0000   0.0000   0.0000   0.0000   0.0000

          k =-0.0010 0.0010 0.5010 (   560 PWs)   bands (ev):

    -4.5327   2.9367   4.5350   4.5351   7.5575   9.5686  12.2916  12.2916
    14.6994  15.4532  18.0150  19.5650  19.5653  20.2933  24.0546  24.0548
    24.9766  27.1197  27.6631  31.6475  33.1099  34.1477  34.1477  36.2933
    36.2937  36.4507  37.1501  41.5388  42.0176  42.2526

     occupation numbers 
     1.0000   1.0000   1.0000   1.0000   0.0000   0.0000   0.0000   0.0000
     0.0000   0.0000   0.0000   0.0000   0.0000   0.0000   0.0000   0.0000
     0.0000   0.0000   0.0000   0.0000   0.0000   0.0000   0.0000   0.0000
     0.0000   0.0000   0.0000   0.0000   0.0000   0.0000

          k =-0.2510 0.2510 0.2510 (   564 PWs)   bands (ev):

    -4.8171   2.4774   5.6937   5.6937   8.5327   9.9784   9.9784  13.5319
    13.6749  13.6749  15.4912  18.4304  21.2482  21.2482  24.4757  24.4757
    24.6850  26.7370  30.8189  30.8189  33.5159  33.5159  34.6859  36.3137
    36.6734  38.6046  38.6046  40.3730  40.3730  41.2930

     occupation numbers 
     1.0000   1.0000   1.0000   1.0000   0.0000   0.0000   0.0000   0.0000
     0.0000   0.0000   0.0000   0.0000   0.0000   0.0000   0.0000   0.0000
     0.0000   0.0000   0.0000   0.0000   0.0000   0.0000   0.0000   0.0000
     0.0000   0.0000   0.0000   0.0000   0.0000   0.0000

          k =-0.5010 0.5010 0.0010 (   554 PWs)   bands (ev):

    -3.5489   0.9330   2.6252   5.1132   8.9035  11.2936  11.6522  12.6960
    12.9108  16.1855  19.1950  19.8606  20.0184  23.3103  23.7237  24.1561
    25.3933  28.0036  28.3552  30.6662  31.5259  32.0292  33.5812  33.8000
    34.6242  36.1383  37.1140  37.9838  41.0122  41.1476

     occupation numbers 
     1.0000   1.0000   1.0000   1.0000   0.0000   0.0000   0.0000   0.0000
     0.0000   0.0000   0.0000   0.0000   0.0000   0.0000   0.0000   0.0000
     0.0000   0.0000   0.0000   0.0000   0.0000   0.0000   0.0000   0.0000
     0.0000   0.0000   0.0000   0.0000   0.0000   0.0000

          k =-0.7510 0.7510-0.2490 (   558 PWs)   bands (ev):

    -2.8653   0.0233   2.8561   4.2157   7.9416  10.8969  12.3115  12.4367
    16.7950  17.0903  18.7412  19.3272  19.6599  23.4870  24.3619  25.3706
    25.9885  26.2860  26.6173  29.5951  30.5352  31.9033  32.3142  34.6071
    35.8952  36.0732  36.2062  37.9870  38.9367  41.1614

     occupation numbers 
     1.0000   1.0000   1.0000   1.0000   0.0000   0.0000   0.0000   0.0000
     0.0000   0.0000   0.0000   0.0000   0.0000   0.0000   0.0000   0.0000
     0.0000   0.0000   0.0000   0.0000   0.0000   0.0000   0.0000   0.0000
     0.0000   0.0000   0.0000   0.0000   0.0000   0.0000

          k = 0.2490 0.2510 0.7510 (   558 PWs)   bands (ev):

    -2.8635   0.0180   2.8563   4.2188   7.9455  10.9163  12.2998  12.4271
    16.7829  17.0791  18.7490  19.3248  19.6593  23.5023  24.3779  25.3541
    26.0033  26.2971  26.6033  29.6079  30.5184  31.9122  32.3221  34.6050
    35.8805  36.0896  36.1914  37.9839  38.9224  41.1561

     occupation numbers 
     1.0000   1.0000   1.0000   1.0000   0.0000   0.0000   0.0000   0.0000
     0.0000   0.0000   0.0000   0.0000   0.0000   0.0000   0.0000   0.0000
     0.0000   0.0000   0.0000   0.0000   0.0000   0.0000   0.0000   0.0000
     0.0000   0.0000   0.0000   0.0000   0.0000   0.0000

          k =-0.0010 0.5010 0.5010 (   554 PWs)   bands (ev):

    -3.5489   0.9330   2.6252   5.1132   8.9035  11.2936  11.6522  12.6960
    12.9108  16.1855  19.1950  19.8606  20.0184  23.3103  23.7237  24.1561
    25.3933  28.0036  28.3552  30.6662  31.5259  32.0292  33.5812  33.8000
    34.6242  36.1383  37.1140  37.9838  41.0122  41.1475

     occupation numbers 
     1.0000   1.0000   1.0000   1.0000   0.0000   0.0000   0.0000   0.0000
     0.0000   0.0000   0.0000   0.0000   0.0000   0.0000   0.0000   0.0000
     0.0000   0.0000   0.0000   0.0000   0.0000   0.0000   0.0000   0.0000
     0.0000   0.0000   0.0000   0.0000   0.0000   0.0000

          k =-0.2510 0.7510 0.2510 (   558 PWs)   bands (ev):

    -2.8618   0.0126   2.8565   4.2220   7.9493  10.9356  12.2903  12.4153
    16.7721  17.0667  18.7575  19.3212  19.6592  23.5179  24.3936  25.3374
    26.0193  26.3070  26.5895  29.6207  30.5018  31.9217  32.3294  34.6029
    35.8644  36.1064  36.1779  37.9805  38.9079  41.1515

     occupation numbers 
     1.0000   1.0000   1.0000   1.0000   0.0000   0.0000   0.0000   0.0000
     0.0000   0.0000   0.0000   0.0000   0.0000   0.0000   0.0000   0.0000
     0.0000   0.0000   0.0000   0.0000   0.0000   0.0000   0.0000   0.0000
     0.0000   0.0000   0.0000   0.0000   0.0000   0.0000

          k =-0.5010 1.0010 0.0010 (   560 PWs)   bands (ev):

    -1.2557  -1.2425   2.5193   2.5293  10.7251  10.7351  11.5111  11.5222
    17.1598  17.1839  19.6432  19.6684  23.0360  23.0598  25.1895  25.2161
    25.6503  25.6708  26.5396  26.5587  30.4193  30.4438  34.1750  34.1960
    34.3739  34.3923  36.2229  36.2469  39.5663  39.5744

     occupation numbers 
     1.0000   1.0000   1.0000   1.0000   0.0000   0.0000   0.0000   0.0000
     0.0000   0.0000   0.0000   0.0000   0.0000   0.0000   0.0000   0.0000
     0.0000   0.0000   0.0000   0.0000   0.0000   0.0000   0.0000   0.0000
     0.0000   0.0000   0.0000   0.0000   0.0000   0.0000

          k = 0.4990 0.5010 1.0010 (   554 PWs)   bands (ev):

    -3.5564   0.9423   2.6319   5.1183   8.9091  11.2842  11.6437  12.6887
    12.9070  16.2047  19.1852  19.8367  20.0143  23.2904  23.7286  24.1660
    25.4053  28.0122  28.3342  30.6869  31.5007  32.0459  33.5980  33.8249
    34.6205  36.1402  37.1339  38.0042  41.0004  41.1476

     occupation numbers 
     1.0000   1.0000   1.0000   1.0000   0.0000   0.0000   0.0000   0.0000
     0.0000   0.0000   0.0000   0.0000   0.0000   0.0000   0.0000   0.0000
     0.0000   0.0000   0.0000   0.0000   0.0000   0.0000   0.0000   0.0000
     0.0000   0.0000   0.0000   0.0000   0.0000   0.0000

          k = 0.2490 0.7510 0.7510 (   558 PWs)   bands (ev):

    -2.8653   0.0233   2.8561   4.2157   7.9416  10.8969  12.3115  12.4367
    16.7950  17.0903  18.7412  19.3272  19.6599  23.4870  24.3619  25.3706
    25.9885  26.2860  26.6173  29.5951  30.5352  31.9033  32.3142  34.6071
    35.8952  36.0732  36.2062  37.9870  38.9367  41.1613

     occupation numbers 
     1.0000   1.0000   1.0000   1.0000   0.0000   0.0000   0.0000   0.0000
     0.0000   0.0000   0.0000   0.0000   0.0000   0.0000   0.0000   0.0000
     0.0000   0.0000   0.0000   0.0000   0.0000   0.0000   0.0000   0.0000
     0.0000   0.0000   0.0000   0.0000   0.0000   0.0000

          k =-0.0010 1.0010 0.5010 (   560 PWs)   bands (ev):

    -1.2557  -1.2425   2.5193   2.5293  10.7251  10.7351  11.5111  11.5222
    17.1598  17.1839  19.6432  19.6684  23.0360  23.0598  25.1895  25.2161
    25.6503  25.6708  26.5396  26.5587  30.4193  30.4438  34.1750  34.1960
    34.3739  34.3923  36.2229  36.2469  39.5662  39.5744

     occupation numbers 
     1.0000   1.0000   1.0000   1.0000   0.0000   0.0000   0.0000   0.0000
     0.0000   0.0000   0.0000   0.0000   0.0000   0.0000   0.0000   0.0000
     0.0000   0.0000   0.0000   0.0000   0.0000   0.0000   0.0000   0.0000
     0.0000   0.0000   0.0000   0.0000   0.0000   0.0000

          k =-0.2510 1.2510 0.2510 (   558 PWs)   bands (ev):

    -2.8723   0.0209   2.8682   4.2255   7.9544  10.9407  12.2717  12.4016
    16.7802  17.0874  18.7347  19.3025  19.6449  23.5023  24.3967  25.3374
    26.0232  26.3013  26.6196  29.6146  30.5141  31.9526  32.3565  34.5761
    35.8656  36.1355  36.1793  37.9651  38.9122  41.1511

     occupation numbers 
     1.0000   1.0000   1.0000   1.0000   0.0000   0.0000   0.0000   0.0000
     0.0000   0.0000   0.0000   0.0000   0.0000   0.0000   0.0000   0.0000
     0.0000   0.0000   0.0000   0.0000   0.0000   0.0000   0.0000   0.0000
     0.0000   0.0000   0.0000   0.0000   0.0000   0.0000

          k =-0.5010-0.4990 0.5010 (   568 PWs)   bands (ev):

    -3.2562  -0.6049   5.2526   5.2527   8.0458   9.7851   9.7852  14.1941
    17.0828  17.0835  17.9120  17.9123  17.9636  19.7124  26.1188  26.6384
    28.3124  28.3136  28.5363  28.5374  32.4756  33.1334  33.1335  34.3347
    34.3348  35.0500  37.7633  39.2419  39.2421  39.7402

     occupation numbers 
     1.0000   1.0000   1.0000   1.0000   0.0000   0.0000   0.0000   0.0000
     0.0000   0.0000   0.0000   0.0000   0.0000   0.0000   0.0000   0.0000
     0.0000   0.0000   0.0000   0.0000   0.0000   0.0000   0.0000   0.0000
     0.0000   0.0000   0.0000   0.0000   0.0000   0.0000

          k =-0.7510-0.2490 0.2510 (   558 PWs)   bands (ev):

    -2.8635   0.0180   2.8562   4.2188   7.9455  10.9163  12.2998  12.4271
    16.7829  17.0791  18.7490  19.3248  19.6593  23.5023  24.3779  25.3541
    26.0033  26.2971  26.6033  29.6079  30.5184  31.9122  32.3221  34.6050
    35.8805  36.0896  36.1914  37.9839  38.9224  41.1561

     occupation numbers 
     1.0000   1.0000   1.0000   1.0000   0.0000   0.0000   0.0000   0.0000
     0.0000   0.0000   0.0000   0.0000   0.0000   0.0000   0.0000   0.0000
     0.0000   0.0000   0.0000   0.0000   0.0000   0.0000   0.0000   0.0000
     0.0000   0.0000   0.0000   0.0000   0.0000   0.0000

          k =-1.0010 0.0010 0.0010 (   556 PWs)   bands (ev):

    -1.4301  -1.4144   3.5604   3.5605   7.1178   7.1213  16.7288  16.7288
    17.5335  17.5335  19.0789  19.0982  19.7182  19.7332  25.5172  25.5375
    26.3788  26.3789  26.8426  26.8428  28.2035  28.2223  32.3019  32.3154
    36.3183  36.3184  41.0549  41.0613  41.1105  41.1444

     occupation numbers 
     1.0000   1.0000   1.0000   1.0000   0.0000   0.0000   0.0000   0.0000
     0.0000   0.0000   0.0000   0.0000   0.0000   0.0000   0.0000   0.0000
     0.0000   0.0000   0.0000   0.0000   0.0000   0.0000   0.0000   0.0000
     0.0000   0.0000   0.0000   0.0000   0.0000   0.0000

          k =-1.2510 0.2510-0.2490 (   558 PWs)   bands (ev):

    -2.8740   0.0263   2.8680   4.2223   7.9506  10.9214  12.2812  12.4133
    16.7911  17.0997  18.7262  19.3057  19.6454  23.4868  24.3809  25.3541
    26.0072  26.2911  26.6336  29.6018  30.5308  31.9431  32.3493  34.5781
    35.8814  36.1188  36.1933  37.9684  38.9268  41.1557

     occupation numbers 
     1.0000   1.0000   1.0000   1.0000   0.0000   0.0000   0.0000   0.0000
     0.0000   0.0000   0.0000   0.0000   0.0000   0.0000   0.0000   0.0000
     0.0000   0.0000   0.0000   0.0000   0.0000   0.0000   0.0000   0.0000
     0.0000   0.0000   0.0000   0.0000   0.0000   0.0000

          k =-0.2510-0.2490 0.7510 (   558 PWs)   bands (ev):

    -2.8635   0.0180   2.8563   4.2188   7.9455  10.9163  12.2998  12.4271
    16.7829  17.0791  18.7490  19.3248  19.6593  23.5023  24.3779  25.3541
    26.0033  26.2971  26.6033  29.6079  30.5184  31.9122  32.3221  34.6050
    35.8805  36.0896  36.1914  37.9839  38.9224  41.1561

     occupation numbers 
     1.0000   1.0000   1.0000   1.0000   0.0000   0.0000   0.0000   0.0000
     0.0000   0.0000   0.0000   0.0000   0.0000   0.0000   0.0000   0.0000
     0.0000   0.0000   0.0000   0.0000   0.0000   0.0000   0.0000   0.0000
     0.0000   0.0000   0.0000   0.0000   0.0000   0.0000

          k =-0.5010 0.0010 0.5010 (   554 PWs)   bands (ev):

    -3.5489   0.9330   2.6252   5.1132   8.9035  11.2936  11.6522  12.6960
    12.9108  16.1855  19.1950  19.8606  20.0184  23.3103  23.7237  24.1561
    25.3933  28.0036  28.3552  30.6662  31.5259  32.0292  33.5812  33.8000
    34.6242  36.1383  37.1140  37.9838  41.0122  41.1475

     occupation numbers 
     1.0000   1.0000   1.0000   1.0000   0.0000   0.0000   0.0000   0.0000
     0.0000   0.0000   0.0000   0.0000   0.0000   0.0000   0.0000   0.0000
     0.0000   0.0000   0.0000   0.0000   0.0000   0.0000   0.0000   0.0000
     0.0000   0.0000   0.0000   0.0000   0.0000   0.0000

          k =-0.7510 0.2510 0.2510 (   558 PWs)   bands (ev):

    -2.8618   0.0126   2.8565   4.2220   7.9493  10.9356  12.2903  12.4153
    16.7721  17.0667  18.7575  19.3212  19.6592  23.5179  24.3936  25.3374
    26.0193  26.3070  26.5895  29.6207  30.5018  31.9217  32.3294  34.6029
    35.8644  36.1064  36.1779  37.9805  38.9079  41.1516

     occupation numbers 
     1.0000   1.0000   1.0000   1.0000   0.0000   0.0000   0.0000   0.0000
     0.0000   0.0000   0.0000   0.0000   0.0000   0.0000   0.0000   0.0000
     0.0000   0.0000   0.0000   0.0000   0.0000   0.0000   0.0000   0.0000
     0.0000   0.0000   0.0000   0.0000   0.0000   0.0000

          k =-1.0010 0.5010 0.0010 (   560 PWs)   bands (ev):

    -1.2557  -1.2425   2.5193   2.5293  10.7251  10.7351  11.5111  11.5222
    17.1598  17.1839  19.6432  19.6684  23.0360  23.0598  25.1895  25.2161
    25.6503  25.6708  26.5396  26.5587  30.4193  30.4438  34.1750  34.1960
    34.3739  34.3923  36.2229  36.2469  39.5663  39.5744

     occupation numbers 
     1.0000   1.0000   1.0000   1.0000   0.0000   0.0000   0.0000   0.0000
     0.0000   0.0000   0.0000   0.0000   0.0000   0.0000   0.0000   0.0000
     0.0000   0.0000   0.0000   0.0000   0.0000   0.0000   0.0000   0.0000
     0.0000   0.0000   0.0000   0.0000   0.0000   0.0000

          k =-0.0010 0.0010 1.0010 (   556 PWs)   bands (ev):

    -1.4301  -1.4144   3.5604   3.5605   7.1178   7.1213  16.7288  16.7288
    17.5335  17.5335  19.0789  19.0982  19.7182  19.7332  25.5172  25.5375
    26.3788  26.3789  26.8426  26.8428  28.2035  28.2223  32.3019  32.3154
    36.3183  36.3184  41.0549  41.0613  41.1106  41.1444

     occupation numbers 
     1.0000   1.0000   1.0000   1.0000   0.0000   0.0000   0.0000   0.0000
     0.0000   0.0000   0.0000   0.0000   0.0000   0.0000   0.0000   0.0000
     0.0000   0.0000   0.0000   0.0000   0.0000   0.0000   0.0000   0.0000
     0.0000   0.0000   0.0000   0.0000   0.0000   0.0000

          k =-0.2510 0.2510 0.7510 (   558 PWs)   bands (ev):

    -2.8618   0.0126   2.8565   4.2220   7.9493  10.9356  12.2903  12.4153
    16.7721  17.0667  18.7575  19.3212  19.6592  23.5179  24.3936  25.3374
    26.0193  26.3070  26.5895  29.6207  30.5018  31.9217  32.3294  34.6029
    35.8644  36.1064  36.1779  37.9806  38.9079  41.1517

     occupation numbers 
     1.0000   1.0000   1.0000   1.0000   0.0000   0.0000   0.0000   0.0000
     0.0000   0.0000   0.0000   0.0000   0.0000   0.0000   0.0000   0.0000
     0.0000   0.0000   0.0000   0.0000   0.0000   0.0000   0.0000   0.0000
     0.0000   0.0000   0.0000   0.0000   0.0000   0.0000

          k =-0.5010 0.5010 0.5010 (   568 PWs)   bands (ev):

    -3.2563  -0.6048   5.2528   5.2528   8.0457   9.7851   9.7851  14.1941
    17.0830  17.0830  17.9126  17.9126  17.9630  19.7125  26.1172  26.6402
    28.3107  28.3107  28.5392  28.5392  32.4752  33.1337  33.1337  34.3346
    34.3346  35.0502  37.7631  39.2426  39.2426  39.7399

     occupation numbers 
     1.0000   1.0000   1.0000   1.0000   0.0000   0.0000   0.0000   0.0000
     0.0000   0.0000   0.0000   0.0000   0.0000   0.0000   0.0000   0.0000
     0.0000   0.0000   0.0000   0.0000   0.0000   0.0000   0.0000   0.0000
     0.0000   0.0000   0.0000   0.0000   0.0000   0.0000

          k =-0.7510 0.7510 0.2510 (   558 PWs)   bands (ev):

    -2.8759   0.0317   2.8678   4.2192   7.9466  10.9021  12.2929  12.4229
    16.8031  17.1109  18.7184  19.3077  19.6464  23.4715  24.3650  25.3708
    25.9923  26.2796  26.6475  29.5890  30.5476  31.9342  32.3414  34.5801
    35.8957  36.1025  36.2084  37.9714  38.9411  41.1609

     occupation numbers 
     1.0000   1.0000   1.0000   1.0000   0.0000   0.0000   0.0000   0.0000
     0.0000   0.0000   0.0000   0.0000   0.0000   0.0000   0.0000   0.0000
     0.0000   0.0000   0.0000   0.0000   0.0000   0.0000   0.0000   0.0000
     0.0000   0.0000   0.0000   0.0000   0.0000   0.0000

          k = 0.2490 0.2510 1.2510 (   558 PWs)   bands (ev):

    -2.8740   0.0263   2.8680   4.2223   7.9506  10.9214  12.2812  12.4133
    16.7911  17.0997  18.7262  19.3057  19.6454  23.4868  24.3809  25.3541
    26.0072  26.2911  26.6336  29.6018  30.5308  31.9431  32.3493  34.5781
    35.8814  36.1188  36.1933  37.9683  38.9268  41.1557

     occupation numbers 
     1.0000   1.0000   1.0000   1.0000   0.0000   0.0000   0.0000   0.0000
     0.0000   0.0000   0.0000   0.0000   0.0000   0.0000   0.0000   0.0000
     0.0000   0.0000   0.0000   0.0000   0.0000   0.0000   0.0000   0.0000
     0.0000   0.0000   0.0000   0.0000   0.0000   0.0000

          k =-0.0010 0.5010 1.0010 (   560 PWs)   bands (ev):

    -1.2557  -1.2425   2.5193   2.5293  10.7251  10.7351  11.5111  11.5222
    17.1598  17.1839  19.6432  19.6684  23.0360  23.0598  25.1895  25.2161
    25.6503  25.6708  26.5396  26.5587  30.4193  30.4438  34.1750  34.1960
    34.3739  34.3923  36.2229  36.2469  39.5663  39.5744

     occupation numbers 
     1.0000   1.0000   1.0000   1.0000   0.0000   0.0000   0.0000   0.0000
     0.0000   0.0000   0.0000   0.0000   0.0000   0.0000   0.0000   0.0000
     0.0000   0.0000   0.0000   0.0000   0.0000   0.0000   0.0000   0.0000
     0.0000   0.0000   0.0000   0.0000   0.0000   0.0000

          k =-0.2510 0.7510 0.7510 (   558 PWs)   bands (ev):

    -2.8759   0.0317   2.8678   4.2192   7.9466  10.9021  12.2929  12.4229
    16.8031  17.1109  18.7184  19.3077  19.6464  23.4715  24.3650  25.3708
    25.9923  26.2796  26.6475  29.5890  30.5476  31.9342  32.3414  34.5801
    35.8957  36.1025  36.2084  37.9714  38.9411  41.1609

     occupation numbers 
     1.0000   1.0000   1.0000   1.0000   0.0000   0.0000   0.0000   0.0000
     0.0000   0.0000   0.0000   0.0000   0.0000   0.0000   0.0000   0.0000
     0.0000   0.0000   0.0000   0.0000   0.0000   0.0000   0.0000   0.0000
     0.0000   0.0000   0.0000   0.0000   0.0000   0.0000

          k =-0.5010 1.0010 0.5010 (   554 PWs)   bands (ev):

    -3.5639   0.9516   2.6385   5.1234   8.9144  11.2758  11.6342  12.6841
    12.9006  16.2237  19.1754  19.8129  20.0103  23.2704  23.7345  24.1748
    25.4175  28.0207  28.3134  30.7078  31.4752  32.0626  33.6166  33.8482
    34.6171  36.1415  37.1536  38.0244  40.9888  41.1485

     occupation numbers 
     1.0000   1.0000   1.0000   1.0000   0.0000   0.0000   0.0000   0.0000
     0.0000   0.0000   0.0000   0.0000   0.0000   0.0000   0.0000   0.0000
     0.0000   0.0000   0.0000   0.0000   0.0000   0.0000   0.0000   0.0000
     0.0000   0.0000   0.0000   0.0000   0.0000   0.0000

          k =-0.7510-0.7490 0.7510 (   564 PWs)   bands (ev):

    -4.8255   2.5017   5.6940   5.7023   8.5377   9.9717   9.9811  13.5090
    13.6591  13.6767  15.4960  18.4020  21.2168  21.2359  24.4927  24.5149
    24.6974  26.7198  30.8156  30.8179  33.5086  33.5168  34.7188  36.3118
    36.6664  38.6365  38.6502  40.3730  40.3988  41.3018

     occupation numbers 
     1.0000   1.0000   1.0000   1.0000   0.0000   0.0000   0.0000   0.0000
     0.0000   0.0000   0.0000   0.0000   0.0000   0.0000   0.0000   0.0000
     0.0000   0.0000   0.0000   0.0000   0.0000   0.0000   0.0000   0.0000
     0.0000   0.0000   0.0000   0.0000   0.0000   0.0000

          k =-1.0010-0.4990 0.5010 (   554 PWs)   bands (ev):

    -3.5564   0.9423   2.6319   5.1183   8.9091  11.2842  11.6437  12.6887
    12.9070  16.2047  19.1852  19.8367  20.0143  23.2904  23.7286  24.1660
    25.4053  28.0122  28.3342  30.6869  31.5007  32.0459  33.5980  33.8249
    34.6205  36.1402  37.1339  38.0042  41.0004  41.1476

     occupation numbers 
     1.0000   1.0000   1.0000   1.0000   0.0000   0.0000   0.0000   0.0000
     0.0000   0.0000   0.0000   0.0000   0.0000   0.0000   0.0000   0.0000
     0.0000   0.0000   0.0000   0.0000   0.0000   0.0000   0.0000   0.0000
     0.0000   0.0000   0.0000   0.0000   0.0000   0.0000

          k =-1.2510-0.2490 0.2510 (   558 PWs)   bands (ev):

    -2.8740   0.0263   2.8680   4.2223   7.9506  10.9214  12.2812  12.4133
    16.7911  17.0997  18.7262  19.3057  19.6454  23.4868  24.3809  25.3541
    26.0072  26.2911  26.6336  29.6018  30.5308  31.9431  32.3493  34.5781
    35.8814  36.1188  36.1933  37.9684  38.9268  41.1556

     occupation numbers 
     1.0000   1.0000   1.0000   1.0000   0.0000   0.0000   0.0000   0.0000
     0.0000   0.0000   0.0000   0.0000   0.0000   0.0000   0.0000   0.0000
     0.0000   0.0000   0.0000   0.0000   0.0000   0.0000   0.0000   0.0000
     0.0000   0.0000   0.0000   0.0000   0.0000   0.0000

          k =-1.5010 0.0010 0.0010 (   560 PWs)   bands (ev):

    -4.5414   2.9549   4.5426   4.5427   7.5637   9.5842  12.2737  12.2737
    14.6783  15.4434  17.9936  19.5530  19.5533  20.2786  24.0769  24.0771
    25.0040  27.1376  27.6333  31.6280  33.1219  34.1536  34.1536  36.3174
    36.3178  36.4784  37.1910  41.5235  42.0233  42.2191

     occupation numbers 
     1.0000   1.0000   1.0000   1.0000   0.0000   0.0000   0.0000   0.0000
     0.0000   0.0000   0.0000   0.0000   0.0000   0.0000   0.0000   0.0000
     0.0000   0.0000   0.0000   0.0000   0.0000   0.0000   0.0000   0.0000
     0.0000   0.0000   0.0000   0.0000   0.0000   0.0000

          k =-0.5010-0.4990 1.0010 (   554 PWs)   bands (ev):

    -3.5564   0.9423   2.6319   5.1183   8.9091  11.2842  11.6437  12.6887
    12.9070  16.2047  19.1852  19.8367  20.0143  23.2904  23.7286  24.1660
    25.4053  28.0122  28.3342  30.6869  31.5007  32.0459  33.5980  33.8249
    34.6205  36.1402  37.1339  38.0042  41.0004  41.1476

     occupation numbers 
     1.0000   1.0000   1.0000   1.0000   0.0000   0.0000   0.0000   0.0000
     0.0000   0.0000   0.0000   0.0000   0.0000   0.0000   0.0000   0.0000
     0.0000   0.0000   0.0000   0.0000   0.0000   0.0000   0.0000   0.0000
     0.0000   0.0000   0.0000   0.0000   0.0000   0.0000

          k =-0.7510-0.2490 0.7510 (   558 PWs)   bands (ev):

    -2.8653   0.0233   2.8561   4.2157   7.9416  10.8969  12.3115  12.4367
    16.7950  17.0903  18.7412  19.3272  19.6599  23.4870  24.3619  25.3706
    25.9885  26.2860  26.6173  29.5951  30.5352  31.9033  32.3142  34.6071
    35.8952  36.0732  36.2062  37.9870  38.9367  41.1614

     occupation numbers 
     1.0000   1.0000   1.0000   1.0000   0.0000   0.0000   0.0000   0.0000
     0.0000   0.0000   0.0000   0.0000   0.0000   0.0000   0.0000   0.0000
     0.0000   0.0000   0.0000   0.0000   0.0000   0.0000   0.0000   0.0000
     0.0000   0.0000   0.0000   0.0000   0.0000   0.0000

          k =-1.0010 0.0010 0.5010 (   560 PWs)   bands (ev):

    -1.2557  -1.2425   2.5193   2.5293  10.7251  10.7351  11.5111  11.5222
    17.1598  17.1839  19.6432  19.6684  23.0360  23.0598  25.1895  25.2161
    25.6503  25.6708  26.5396  26.5587  30.4193  30.4438  34.1750  34.1960
    34.3739  34.3923  36.2229  36.2469  39.5663  39.5744

     occupation numbers 
     1.0000   1.0000   1.0000   1.0000   0.0000   0.0000   0.0000   0.0000
     0.0000   0.0000   0.0000   0.0000   0.0000   0.0000   0.0000   0.0000
     0.0000   0.0000   0.0000   0.0000   0.0000   0.0000   0.0000   0.0000
     0.0000   0.0000   0.0000   0.0000   0.0000   0.0000

          k =-1.2510 0.2510 0.2510 (   558 PWs)   bands (ev):

    -2.8723   0.0209   2.8682   4.2255   7.9544  10.9407  12.2717  12.4016
    16.7802  17.0874  18.7347  19.3025  19.6449  23.5023  24.3967  25.3374
    26.0232  26.3013  26.6196  29.6146  30.5141  31.9526  32.3565  34.5761
    35.8656  36.1355  36.1793  37.9651  38.9122  41.1511

     occupation numbers 
     1.0000   1.0000   1.0000   1.0000   0.0000   0.0000   0.0000   0.0000
     0.0000   0.0000   0.0000   0.0000   0.0000   0.0000   0.0000   0.0000
     0.0000   0.0000   0.0000   0.0000   0.0000   0.0000   0.0000   0.0000
     0.0000   0.0000   0.0000   0.0000   0.0000   0.0000

          k =-0.2510-0.2490 1.2510 (   558 PWs)   bands (ev):

    -2.8740   0.0263   2.8680   4.2223   7.9506  10.9214  12.2812  12.4133
    16.7911  17.0997  18.7262  19.3057  19.6454  23.4868  24.3809  25.3541
    26.0072  26.2911  26.6336  29.6018  30.5308  31.9431  32.3493  34.5781
    35.8814  36.1188  36.1933  37.9684  38.9268  41.1556

     occupation numbers 
     1.0000   1.0000   1.0000   1.0000   0.0000   0.0000   0.0000   0.0000
     0.0000   0.0000   0.0000   0.0000   0.0000   0.0000   0.0000   0.0000
     0.0000   0.0000   0.0000   0.0000   0.0000   0.0000   0.0000   0.0000
     0.0000   0.0000   0.0000   0.0000   0.0000   0.0000

          k =-0.5010 0.0010 1.0010 (   560 PWs)   bands (ev):

    -1.2557  -1.2425   2.5193   2.5293  10.7251  10.7351  11.5111  11.5222
    17.1598  17.1839  19.6432  19.6684  23.0360  23.0598  25.1895  25.2161
    25.6503  25.6708  26.5396  26.5587  30.4193  30.4438  34.1750  34.1960
    34.3739  34.3923  36.2229  36.2469  39.5662  39.5744

     occupation numbers 
     1.0000   1.0000   1.0000   1.0000   0.0000   0.0000   0.0000   0.0000
     0.0000   0.0000   0.0000   0.0000   0.0000   0.0000   0.0000   0.0000
     0.0000   0.0000   0.0000   0.0000   0.0000   0.0000   0.0000   0.0000
     0.0000   0.0000   0.0000   0.0000   0.0000   0.0000

          k =-0.7510 0.2510 0.7510 (   558 PWs)   bands (ev):

    -2.8759   0.0317   2.8678   4.2192   7.9466  10.9021  12.2929  12.4229
    16.8031  17.1109  18.7184  19.3077  19.6464  23.4715  24.3650  25.3708
    25.9923  26.2796  26.6475  29.5890  30.5476  31.9342  32.3414  34.5801
    35.8957  36.1025  36.2084  37.9714  38.9411  41.1609

     occupation numbers 
     1.0000   1.0000   1.0000   1.0000   0.0000   0.0000   0.0000   0.0000
     0.0000   0.0000   0.0000   0.0000   0.0000   0.0000   0.0000   0.0000
     0.0000   0.0000   0.0000   0.0000   0.0000   0.0000   0.0000   0.0000
     0.0000   0.0000   0.0000   0.0000   0.0000   0.0000

          k =-1.0010 0.5010 0.5010 (   554 PWs)   bands (ev):

    -3.5639   0.9516   2.6385   5.1234   8.9144  11.2758  11.6342  12.6841
    12.9006  16.2237  19.1754  19.8129  20.0103  23.2704  23.7345  24.1748
    25.4175  28.0207  28.3134  30.7078  31.4752  32.0626  33.6166  33.8482
    34.6171  36.1415  37.1536  38.0244  40.9888  41.1485

     occupation numbers 
     1.0000   1.0000   1.0000   1.0000   0.0000   0.0000   0.0000   0.0000
     0.0000   0.0000   0.0000   0.0000   0.0000   0.0000   0.0000   0.0000
     0.0000   0.0000   0.0000   0.0000   0.0000   0.0000   0.0000   0.0000
     0.0000   0.0000   0.0000   0.0000   0.0000   0.0000

          k =-0.0010 0.0010 1.5010 (   560 PWs)   bands (ev):

    -4.5414   2.9549   4.5426   4.5427   7.5637   9.5842  12.2737  12.2737
    14.6783  15.4434  17.9936  19.5530  19.5533  20.2786  24.0769  24.0771
    25.0040  27.1376  27.6333  31.6280  33.1219  34.1536  34.1536  36.3174
    36.3178  36.4784  37.1910  41.5234  42.0233  42.2193

     occupation numbers 
     1.0000   1.0000   1.0000   1.0000   0.0000   0.0000   0.0000   0.0000
     0.0000   0.0000   0.0000   0.0000   0.0000   0.0000   0.0000   0.0000
     0.0000   0.0000   0.0000   0.0000   0.0000   0.0000   0.0000   0.0000
     0.0000   0.0000   0.0000   0.0000   0.0000   0.0000

          k =-0.2510 0.2510 1.2510 (   558 PWs)   bands (ev):

    -2.8723   0.0209   2.8682   4.2255   7.9544  10.9407  12.2717  12.4016
    16.7802  17.0874  18.7347  19.3025  19.6449  23.5023  24.3967  25.3374
    26.0232  26.3013  26.6196  29.6146  30.5141  31.9526  32.3565  34.5761
    35.8656  36.1355  36.1793  37.9651  38.9122  41.1511

     occupation numbers 
     1.0000   1.0000   1.0000   1.0000   0.0000   0.0000   0.0000   0.0000
     0.0000   0.0000   0.0000   0.0000   0.0000   0.0000   0.0000   0.0000
     0.0000   0.0000   0.0000   0.0000   0.0000   0.0000   0.0000   0.0000
     0.0000   0.0000   0.0000   0.0000   0.0000   0.0000

          k =-0.5010 0.5010 1.0010 (   554 PWs)   bands (ev):

    -3.5639   0.9516   2.6385   5.1234   8.9144  11.2758  11.6342  12.6841
    12.9006  16.2237  19.1754  19.8129  20.0103  23.2704  23.7345  24.1748
    25.4175  28.0207  28.3134  30.7078  31.4752  32.0626  33.6166  33.8482
    34.6171  36.1415  37.1536  38.0244  40.9888  41.1485

     occupation numbers 
     1.0000   1.0000   1.0000   1.0000   0.0000   0.0000   0.0000   0.0000
     0.0000   0.0000   0.0000   0.0000   0.0000   0.0000   0.0000   0.0000
     0.0000   0.0000   0.0000   0.0000   0.0000   0.0000   0.0000   0.0000
     0.0000   0.0000   0.0000   0.0000   0.0000   0.0000

          k =-0.7510 0.7510 0.7510 (   564 PWs)   bands (ev):

    -4.8297   2.5138   5.7005   5.7005   8.5400   9.9754   9.9754  13.4994
    13.6635  13.6635  15.4984  18.3878  21.2153  21.2153  24.5183  24.5183
    24.7028  26.7114  30.8159  30.8159  33.5111  33.5111  34.7348  36.3111
    36.6628  38.6626  38.6626  40.3924  40.3924  41.2953

     occupation numbers 
     1.0000   1.0000   1.0000   1.0000   0.0000   0.0000   0.0000   0.0000
     0.0000   0.0000   0.0000   0.0000   0.0000   0.0000   0.0000   0.0000
     0.0000   0.0000   0.0000   0.0000   0.0000   0.0000   0.0000   0.0000
     0.0000   0.0000   0.0000   0.0000   0.0000   0.0000

     highest occupied, lowest unoccupied level (ev):     6.4735    7.1178

!    total energy              =     -15.74870619 Ry
     estimated scf accuracy    <          1.0E-09 Ry

     The total energy is the sum of the following terms:
     one-electron contribution =       4.88766683 Ry
     hartree contribution      =       1.10870512 Ry
     xc contribution           =      -4.84531954 Ry
     ewald contribution        =     -16.89975860 Ry

     convergence has been achieved in   5 iterations

     Writing all to output data dir ./silicon.save/

     init_run     :      9.36s CPU      9.34s WALL (       1 calls)
     electrons    :    215.33s CPU    201.74s WALL (       1 calls)

     Called by init_run:
     wfcinit      :      9.26s CPU      9.11s WALL (       1 calls)
     wfcinit:wfcr :      9.24s CPU      9.10s WALL (      64 calls)
     potinit      :      0.00s CPU      0.00s WALL (       1 calls)
     hinit0       :      0.10s CPU      0.23s WALL (       1 calls)

     Called by electrons:
     c_bands      :    214.48s CPU    200.91s WALL (       6 calls)
     sum_band     :      0.77s CPU      0.78s WALL (       6 calls)
     v_of_rho     :      0.00s CPU      0.00s WALL (       6 calls)
     v_h          :      0.00s CPU      0.00s WALL (       6 calls)
     v_xc         :      0.00s CPU      0.00s WALL (       6 calls)
     mix_rho      :      0.00s CPU      0.00s WALL (       6 calls)

     Called by c_bands:
     init_us_2    :      0.03s CPU      0.02s WALL (     832 calls)
     init_us_2:cp :      0.02s CPU      0.02s WALL (     832 calls)
     cegterg      :    192.42s CPU    184.31s WALL (     384 calls)

     Called by sum_band:
     sum_band:wei :      0.00s CPU      0.00s WALL (       6 calls)
     sum_band:loo :      0.77s CPU      0.78s WALL (       6 calls)
     sum_band:buf :      0.00s CPU      0.00s WALL (     384 calls)
     sum_band:ini :      0.01s CPU      0.01s WALL (     384 calls)

     Called by *egterg:
     cdiaghg      :     44.77s CPU     42.59s WALL (    1553 calls)
     cegterg:over :     40.19s CPU     42.07s WALL (    1233 calls)
     cegterg:upda :      2.25s CPU      3.88s WALL (    1233 calls)
     cegterg:last :      8.11s CPU     13.04s WALL (     830 calls)
     h_psi        :     46.35s CPU     40.77s WALL (    1681 calls)
     g_psi        :      0.01s CPU      0.01s WALL (    1233 calls)

     Called by h_psi:
     h_psi:calbec :      6.76s CPU      6.19s WALL (    1681 calls)
     vloc_psi     :     38.97s CPU     32.52s WALL (    1681 calls)
     add_vuspsi   :      0.59s CPU      2.01s WALL (    1681 calls)

     General routines
     calbec       :      6.75s CPU      6.19s WALL (    1681 calls)
     fft          :      0.10s CPU      0.23s WALL (      60 calls)
     ffts         :      0.00s CPU      0.00s WALL (       6 calls)
     fftw         :     39.38s CPU     32.87s WALL (   75840 calls)

     Parallel routines

     PWSCF        :   3m44.73s CPU   3m31.16s WALL


   This run was terminated on:  21:44:44   6Apr2025            

=------------------------------------------------------------------------------=
   JOB DONE.
=------------------------------------------------------------------------------=
