
     Program PWSCF v.7.2 starts on 11Apr2025 at 13: 6:13 

     This program is part of the open-source Quantum ESPRESSO suite
     for quantum simulation of materials; please cite
         "P. Giannozzi et al., J. Phys.:Condens. Matter 21 395502 (2009);
         "P. Giannozzi et al., J. Phys.:Condens. Matter 29 465901 (2017);
         "P. Giannozzi et al., J. Chem. Phys. 152 154105 (2020);
          URL http://www.quantum-espresso.org", 
     in publications or presentations arising from this work. More details at
     http://www.quantum-espresso.org/quote

     Parallel version (MPI), running on     1 processors

     MPI processes distributed on     1 nodes
     19687 MiB available memory on the printing compute node when the environment starts

     Waiting for input...
     Reading input from standard input

     Current dimensions of program PWSCF are:
     Max number of different atomic species (ntypx) = 10
     Max number of k-points (npk) =  40000
     Max angular momentum in pseudopotentials (lmaxx) =  4

     Subspace diagonalization in iterative solution of the eigenvalue problem:
     a serial algorithm will be used


     G-vector sticks info
     --------------------
     sticks:   dense  smooth     PW     G-vecs:    dense   smooth      PW
     Sum          55      55     19                  283      283      65

     Using Slab Decomposition



     bravais-lattice index     =            2
     lattice parameter (alat)  =      10.2000  a.u.
     unit-cell volume          =     265.3020 (a.u.)^3
     number of atoms/cell      =            2
     number of atomic types    =            1
     number of electrons       =         8.00
     number of Kohn-Sham states=            9
     kinetic-energy cutoff     =       4.0000  Ry
     charge density cutoff     =      16.0000  Ry
     scf convergence threshold =      1.0E-08
     mixing beta               =       0.7000
     number of iterations used =            8  plain     mixing
     Exchange-correlation= PBE
                           (   1   4   3   4   0   0   0)

     celldm(1)=  10.200000  celldm(2)=   0.000000  celldm(3)=   0.000000
     celldm(4)=   0.000000  celldm(5)=   0.000000  celldm(6)=   0.000000

     crystal axes: (cart. coord. in units of alat)
               a(1) = (  -0.500000   0.000000   0.500000 )  
               a(2) = (   0.000000   0.500000   0.500000 )  
               a(3) = (  -0.500000   0.500000   0.000000 )  

     reciprocal axes: (cart. coord. in units 2 pi/alat)
               b(1) = ( -1.000000 -1.000000  1.000000 )  
               b(2) = (  1.000000  1.000000  1.000000 )  
               b(3) = ( -1.000000  1.000000 -1.000000 )  


     PseudoPot. # 1 for Si read from file:
     ../pseudo/Si_ONCV_PBE-1.2.upf
     MD5 check sum: 7f029a58b69e3aa87b46a36c608bf45e
     Pseudo is Norm-conserving, Zval =  4.0
     Generated using ONCVPSP code by D. R. Hamann
     Using radial grid of  602 points,  4 beta functions with: 
                l(1) =   0
                l(2) =   0
                l(3) =   1
                l(4) =   1

     atomic species   valence    mass     pseudopotential
     Si                4.00    28.08600     Si( 1.00)

     No symmetry found


                                    s                        frac. trans.

      isym =  1     identity                                     

 cryst.   s( 1) = (     1          0          0      )
                  (     0          1          0      )
                  (     0          0          1      )

 cart.    s( 1) = (  1.0000000  0.0000000  0.0000000 )
                  (  0.0000000  1.0000000  0.0000000 )
                  (  0.0000000  0.0000000  1.0000000 )


     point group C_1 (1)    
     there are  1 classes
     the character table:

       E    
A      1.00

     the symmetry operations in each class and the name of the first element:

     E        1
          identity                                               

   Cartesian axes

     site n.     atom                  positions (alat units)
         1        Si     tau(   1) = (  -0.8750000   0.8750000   0.8750000  )
         2        Si     tau(   2) = (  -0.1250000   0.1250000   0.1250000  )

   Crystallographic axes

     site n.     atom                  positions (cryst. coord.)
         1        Si     tau(   1) = (  0.8750000  0.8750000  0.8750000  )
         2        Si     tau(   2) = (  0.1250000  0.1250000  0.1250000  )

     number of k points=     8
                       cart. coord. in units 2pi/alat
        k(    1) = (   0.0000000   0.0000000   0.0000000), wk =   0.2500000
        k(    2) = (  -0.5000000   0.5000000  -0.5000000), wk =   0.2500000
        k(    3) = (   0.5000000   0.5000000   0.5000000), wk =   0.2500000
        k(    4) = (   0.0000000   1.0000000   0.0000000), wk =   0.2500000
        k(    5) = (  -0.5000000  -0.5000000   0.5000000), wk =   0.2500000
        k(    6) = (  -1.0000000   0.0000000   0.0000000), wk =   0.2500000
        k(    7) = (   0.0000000   0.0000000   1.0000000), wk =   0.2500000
        k(    8) = (  -0.5000000   0.5000000   0.5000000), wk =   0.2500000

                       cryst. coord.
        k(    1) = (   0.0000000   0.0000000   0.0000000), wk =   0.2500000
        k(    2) = (   0.0000000   0.0000000   0.5000000), wk =   0.2500000
        k(    3) = (   0.0000000   0.5000000   0.0000000), wk =   0.2500000
        k(    4) = (   0.0000000   0.5000000   0.5000000), wk =   0.2500000
        k(    5) = (   0.5000000   0.0000000   0.0000000), wk =   0.2500000
        k(    6) = (   0.5000000   0.0000000   0.5000000), wk =   0.2500000
        k(    7) = (   0.5000000   0.5000000   0.0000000), wk =   0.2500000
        k(    8) = (   0.5000000   0.5000000   0.5000000), wk =   0.2500000

     Dense  grid:      283 G-vectors     FFT dimensions: (   9,   9,   9)

     Dynamical RAM for                 wfc:       0.00 MB

     Dynamical RAM for     wfc (w. buffer):       0.04 MB

     Dynamical RAM for           str. fact:       0.00 MB

     Dynamical RAM for           local pot:       0.00 MB

     Dynamical RAM for          nlocal pot:       0.01 MB

     Dynamical RAM for                qrad:       0.09 MB

     Dynamical RAM for          rho,v,vnew:       0.03 MB

     Dynamical RAM for               rhoin:       0.01 MB

     Dynamical RAM for            rho*nmix:       0.07 MB

     Dynamical RAM for           G-vectors:       0.02 MB

     Dynamical RAM for          h,s,v(r/c):       0.01 MB

     Dynamical RAM for          <psi|beta>:       0.00 MB

     Dynamical RAM for                 psi:       0.01 MB

     Dynamical RAM for                hpsi:       0.01 MB

     Dynamical RAM for      wfcinit/wfcrot:       0.01 MB

     Estimated static dynamical RAM per process >       0.24 MB

     Estimated max dynamical RAM per process >       0.35 MB

     Initial potential from superposition of free atoms

     starting charge       7.9075, renormalised to       8.0000
     Starting wfcs are random

     total cpu time spent up to now is        0.1 secs

     Self-consistent Calculation

     iteration #  1     ecut=     4.00 Ry     beta= 0.70
     Davidson diagonalization with overlap

---- Real-time Memory Report at c_bands before calling an iterative solver
            39 MiB given to the printing process from OS
             0 MiB allocation reported by mallinfo(arena+hblkhd)
         19674 MiB available memory on the node where the printing process lives
------------------
     ethr =  1.00E-02,  avg # of iterations =  5.0

     total cpu time spent up to now is        0.1 secs

     total energy              =     -15.17755910 Ry
     estimated scf accuracy    <       0.08170129 Ry

     iteration #  2     ecut=     4.00 Ry     beta= 0.70
     Davidson diagonalization with overlap

---- Real-time Memory Report at c_bands before calling an iterative solver
            39 MiB given to the printing process from OS
             0 MiB allocation reported by mallinfo(arena+hblkhd)
         19674 MiB available memory on the node where the printing process lives
------------------
     ethr =  1.02E-03,  avg # of iterations =  1.0

     total cpu time spent up to now is        0.1 secs

     total energy              =     -15.18046708 Ry
     estimated scf accuracy    <       0.00670201 Ry

     iteration #  3     ecut=     4.00 Ry     beta= 0.70
     Davidson diagonalization with overlap

---- Real-time Memory Report at c_bands before calling an iterative solver
            40 MiB given to the printing process from OS
             0 MiB allocation reported by mallinfo(arena+hblkhd)
         19674 MiB available memory on the node where the printing process lives
------------------
     ethr =  8.38E-05,  avg # of iterations =  3.4

     total cpu time spent up to now is        0.1 secs

     total energy              =     -15.18059058 Ry
     estimated scf accuracy    <       0.00000515 Ry

     iteration #  4     ecut=     4.00 Ry     beta= 0.70
     Davidson diagonalization with overlap

---- Real-time Memory Report at c_bands before calling an iterative solver
            40 MiB given to the printing process from OS
             0 MiB allocation reported by mallinfo(arena+hblkhd)
         19672 MiB available memory on the node where the printing process lives
------------------
     ethr =  6.44E-08,  avg # of iterations = 10.1

     total cpu time spent up to now is        0.1 secs

     total energy              =     -15.18059412 Ry
     estimated scf accuracy    <       0.00000049 Ry

     iteration #  5     ecut=     4.00 Ry     beta= 0.70
     Davidson diagonalization with overlap

---- Real-time Memory Report at c_bands before calling an iterative solver
            40 MiB given to the printing process from OS
             0 MiB allocation reported by mallinfo(arena+hblkhd)
         19672 MiB available memory on the node where the printing process lives
------------------
     ethr =  6.11E-09,  avg # of iterations =  2.0

     total cpu time spent up to now is        0.1 secs

     total energy              =     -15.18059424 Ry
     estimated scf accuracy    <       0.00000005 Ry

     iteration #  6     ecut=     4.00 Ry     beta= 0.70
     Davidson diagonalization with overlap

---- Real-time Memory Report at c_bands before calling an iterative solver
            40 MiB given to the printing process from OS
             0 MiB allocation reported by mallinfo(arena+hblkhd)
         19672 MiB available memory on the node where the printing process lives
------------------
     ethr =  6.33E-10,  avg # of iterations =  1.9

     total cpu time spent up to now is        0.2 secs

     End of self-consistent calculation

          k = 0.0000 0.0000 0.0000 (    27 PWs)   bands (ev):

    -4.6461   7.2035   7.2035   7.2042   9.5925   9.5925   9.5925  13.7654
    16.4098

     occupation numbers 
     1.0000   1.0000   1.0000   1.0000   0.0000   0.0000   0.0000   0.0000
     0.0000

          k =-0.5000 0.5000-0.5000 (    34 PWs)   bands (ev):

    -2.2774  -0.0198   5.6746   5.6751   9.9648  10.4165  10.4167  14.9917
    18.9331

     occupation numbers 
     1.0000   1.0000   1.0000   1.0000   0.0000   0.0000   0.0000   0.0000
     0.0000

          k = 0.5000 0.5000 0.5000 (    34 PWs)   bands (ev):

    -2.2774  -0.0198   5.6746   5.6751   9.9648  10.4165  10.4167  14.9917
    18.9330

     occupation numbers 
     1.0000   1.0000   1.0000   1.0000   0.0000   0.0000   0.0000   0.0000
     0.0000

          k = 0.0000 1.0000 0.0000 (    40 PWs)   bands (ev):

    -0.6362  -0.6360   3.6994   3.6998   8.0562   8.0565  17.3862  17.3866
    19.4617

     occupation numbers 
     1.0000   1.0000   1.0000   1.0000   0.0000   0.0000   0.0000   0.0000
     0.0000

          k =-0.5000-0.5000 0.5000 (    34 PWs)   bands (ev):

    -2.2774  -0.0198   5.6746   5.6751   9.9648  10.4165  10.4167  14.9917
    18.9332

     occupation numbers 
     1.0000   1.0000   1.0000   1.0000   0.0000   0.0000   0.0000   0.0000
     0.0000

          k =-1.0000 0.0000 0.0000 (    40 PWs)   bands (ev):

    -0.6362  -0.6360   3.6995   3.6998   8.0562   8.0565  17.3862  17.3867
    19.4617

     occupation numbers 
     1.0000   1.0000   1.0000   1.0000   0.0000   0.0000   0.0000   0.0000
     0.0000

          k = 0.0000 0.0000 1.0000 (    40 PWs)   bands (ev):

    -0.6362  -0.6360   3.6994   3.6998   8.0562   8.0565  17.3862  17.3867
    19.4617

     occupation numbers 
     1.0000   1.0000   1.0000   1.0000   0.0000   0.0000   0.0000   0.0000
     0.0000

          k =-0.5000 0.5000 0.5000 (    34 PWs)   bands (ev):

    -2.2774  -0.0196   5.6746   5.6746   9.9649  10.4166  10.4166  14.9922
    18.9335

     occupation numbers 
     1.0000   1.0000   1.0000   1.0000   0.0000   0.0000   0.0000   0.0000
     0.0000

     highest occupied, lowest unoccupied level (ev):     7.2042    8.0562

!    total energy              =     -15.18059424 Ry
     estimated scf accuracy    <          9.2E-10 Ry

     The total energy is the sum of the following terms:
     one-electron contribution =       5.51249701 Ry
     hartree contribution      =       1.05232265 Ry
     xc contribution           =      -4.84565532 Ry
     ewald contribution        =     -16.89975858 Ry

     convergence has been achieved in   6 iterations

     Writing all to output data dir ./silicon.save/

     init_run     :      0.03s CPU      0.07s WALL (       1 calls)
     electrons    :      0.15s CPU      0.07s WALL (       1 calls)

     Called by init_run:
     wfcinit      :      0.02s CPU      0.03s WALL (       1 calls)
     wfcinit:wfcr :      0.01s CPU      0.03s WALL (       8 calls)
     potinit      :      0.00s CPU      0.00s WALL (       1 calls)
     hinit0       :      0.02s CPU      0.05s WALL (       1 calls)

     Called by electrons:
     c_bands      :      0.13s CPU      0.06s WALL (       6 calls)
     sum_band     :      0.01s CPU      0.00s WALL (       6 calls)
     v_of_rho     :      0.00s CPU      0.00s WALL (       7 calls)
     v_h          :      0.00s CPU      0.00s WALL (       7 calls)
     v_xc         :      0.00s CPU      0.00s WALL (       7 calls)
     mix_rho      :      0.00s CPU      0.00s WALL (       6 calls)

     Called by c_bands:
     init_us_2    :      0.00s CPU      0.00s WALL (     104 calls)
     init_us_2:cp :      0.00s CPU      0.00s WALL (     104 calls)
     cegterg      :      0.12s CPU      0.06s WALL (      48 calls)

     Called by sum_band:
     sum_band:wei :      0.00s CPU      0.00s WALL (       6 calls)
     sum_band:loo :      0.01s CPU      0.00s WALL (       6 calls)
     sum_band:buf :      0.00s CPU      0.00s WALL (      48 calls)
     sum_band:ini :      0.00s CPU      0.00s WALL (      48 calls)

     Called by *egterg:
     cdiaghg      :      0.04s CPU      0.02s WALL (     235 calls)
     cegterg:over :      0.00s CPU      0.00s WALL (     187 calls)
     cegterg:upda :      0.00s CPU      0.00s WALL (     187 calls)
     cegterg:last :      0.00s CPU      0.00s WALL (     116 calls)
     h_psi        :      0.07s CPU      0.05s WALL (     243 calls)
     g_psi        :      0.00s CPU      0.00s WALL (     187 calls)

     Called by h_psi:
     h_psi:calbec :      0.00s CPU      0.00s WALL (     243 calls)
     vloc_psi     :      0.06s CPU      0.04s WALL (     243 calls)
     add_vuspsi   :      0.00s CPU      0.00s WALL (     243 calls)

     General routines
     calbec       :      0.00s CPU      0.00s WALL (     243 calls)
     fft          :      0.01s CPU      0.04s WALL (      69 calls)
     ffts         :      0.00s CPU      0.00s WALL (       6 calls)
     fftw         :      0.04s CPU      0.03s WALL (    3036 calls)

     Parallel routines

     PWSCF        :      0.20s CPU      0.16s WALL


   This run was terminated on:  13: 6:13  11Apr2025            

=------------------------------------------------------------------------------=
   JOB DONE.
=------------------------------------------------------------------------------=
